ITEM: TIMESTEP
0
ITEM: NUMBER OF ATOMS
3658
ITEM: BOX BOUNDS pp pp pp
0.0000000000000000e+00 4.0950000000000003e+01
0.0000000000000000e+00 4.0950000000000003e+01
0.0000000000000000e+00 4.0950000000000003e+01
ITEM: ATOMS id type x y z c_peratom 
236 1 0.543996 0.405362 0.836179 -3.32302 
239 1 3.68285 0.57721 3.46051 -3.04086 
255 1 0.834644 1.06711 3.64013 -3.24539 
305 1 2.41984 2.45427 1.65332 -3.33262 
17 1 7.4086 1.29608 2.70572 -2.83546 
18 1 6.62419 3.40627 0.884648 -2.44462 
20 1 7.83783 4.06676 3.42931 -3.10865 
306 1 5.26804 1.96438 1.4737 -2.31822 
11 1 9.00099 0.0826545 0.613736 -3.25912 
13 1 10.2146 0.743146 3.1584 -3.2413 
15 1 12.2363 2.3004 1.79001 -3.26203 
19 1 9.43022 2.85334 1.33733 -3.26045 
21 1 10.6439 3.51383 3.88199 -3.17194 
14 1 13.0207 0.190211 3.61108 -3.02038 
51 1 14.2579 3.85766 0.42162 -3.21154 
2205 1 14.8866 2.00732 3.78531 -3.19198 
41 1 16.6347 0.53404 0.150708 -3.21111 
2236 1 17.0488 2.26701 1.87693 -3.13475 
2239 1 19.4693 3.67482 2.61422 -3.29005 
2240 1 21.0411 1.35557 1.88265 -2.80225 
2241 1 21.6315 3.93451 0.705833 -3.30912 
2243 1 23.4616 2.76338 2.61994 -2.68387 
2244 1 25.6238 3.02307 0.711559 -2.82799 
3363 1 24.6332 0.230153 2.28267 -3.28488 
3365 1 26.7107 1.06692 0.447316 -2.84452 
3367 1 28.5482 1.36868 2.66477 -2.30759 
2461 1 30.2189 2.4313 2.18198 -2.28812 
2463 1 32.1391 3.4781 4.07985 -2.46013 
250 1 35.7976 1.38515 1.19542 -3.28646 
256 1 32.9494 1.87505 1.37504 -3.25966 
258 1 36.0882 2.04689 3.99937 -1.00172 
251 1 38.6458 0.895261 1.0158 -3.31374 
254 1 38.9364 1.557 3.81975 -3.25891 
319 1 37.6734 3.43406 2.01255 -2.68094 
320 1 40.5216 2.94416 1.83294 -3.28219 
358 1 3.03267 6.38025 0.663258 -1.69967 
510 1 0.0237617 6.14452 2.7868 -3.30669 
513 1 2.73849 6.08486 3.7924 -3.2256 
574 1 2.07626 7.73821 1.50934 -1.7384 
24 1 7.05342 6.17695 1.60824 -3.29774 
307 1 4.29568 4.50318 2.47045 -3.18134 
587 1 4.79098 7.67856 2.51494 -3.26394 
22 1 9.85946 5.62402 2.06092 -3.2561 
60 1 11.8811 7.18128 0.692532 -3.261 
65 1 9.07505 7.73421 0.23985 -3.27848 
23 1 12.6655 5.07108 2.5136 -2.64489 
2235 1 15.477 4.58626 2.60849 -3.22805 
2248 1 13.9053 6.90552 3.34006 -3.07603 
2250 1 16.0675 7.16521 1.43167 -3.33559 
2237 1 17.6392 4.84595 0.700107 -2.77152 
2252 1 17.8976 5.99408 3.34578 -3.32429 
2254 1 20.0598 6.25377 1.4374 -3.3766 
2255 1 20.3181 7.40189 4.08307 -2.98428 
2256 1 21.8898 5.08264 3.35151 -3.21896 
2257 1 22.4803 7.66158 2.17469 -3.19334 
2258 1 24.0521 5.34233 1.44312 -3.20078 
2408 1 23.9695 6.43095 4.08963 -3.18136 
2405 1 25.7262 4.19414 3.54614 -3.23379 
2458 1 27.5217 6.3321 0.550414 -3.20077 
2460 1 28.4623 4.66811 2.72547 -3.21774 
2467 1 26.7056 6.90492 3.26896 -3.26114 
2459 1 29.2783 4.09529 0.00692177 -3.19335 
2462 1 31.1984 5.14208 1.9048 -3.02836 
2469 1 29.4418 7.37889 2.44829 -3.28405 
493 1 33.4918 4.67014 2.05307 -3.0251 
494 1 33.4582 7.5537 2.31479 -3.25653 
496 1 35.5443 6.26384 0.775605 -3.23508 
497 1 36.173 7.49404 3.32039 -3.28422 
498 1 36.2065 4.61048 3.05867 -2.72228 
318 1 39.2586 4.82123 0.0257385 -3.12814 
499 1 38.259 6.20418 1.7812 -3.14833 
500 1 38.9213 4.55082 4.06427 -3.27201 
572 1 40.3115 7.79787 0.503739 -3.30119 
525 1 2.70491 8.96841 4.05412 -3.35 
583 1 2.04268 10.6218 1.77106 -3.3563 
26 1 7.48266 8.94764 2.33183 -2.52761 
584 1 4.09517 12.2155 0.493592 -3.29176 
585 1 4.12875 9.33191 0.231873 -2.7011 
586 1 4.7574 10.5621 2.77666 -3.31192 
598 1 6.80989 12.1558 1.49919 -3.14788 
600 1 7.47212 10.5025 3.78225 -2.47893 
27 1 10.2887 8.3947 2.78451 -2.34046 
2246 1 10.5035 10.3959 2.15751 -2.35467 
2247 1 12.3335 9.22477 4.07162 -3.14035 
2249 1 14.4958 9.48446 2.16324 -3.29243 
2251 1 16.3258 8.31333 4.07735 -3.3067 
2261 1 12.924 11.8037 2.8948 -3.16858 
2280 1 12.6657 10.6556 0.249127 -2.94716 
2291 1 15.0862 12.0634 0.986417 -3.24815 
2253 1 18.488 8.57302 2.16896 -3.36972 
2265 1 16.9163 10.8923 2.90053 -3.3136 
2281 1 16.658 9.74415 0.254852 -3.19648 
2294 1 19.0785 11.152 0.992143 -3.17256 
2269 1 20.9086 9.98084 2.90625 -3.09873 
2285 1 20.6502 8.83271 0.260578 -3.27098 
2464 1 24.0084 10.8057 1.6374 -3.27089 
2465 1 25.765 8.5689 1.09391 -3.21349 
2466 1 24.949 9.14173 3.81245 -3.31603 
2468 1 27.6851 9.6157 2.99178 -3.28344 
2482 1 25.9285 11.8525 3.53527 -3.27439 
2520 1 26.7445 11.2797 0.816723 -3.30929 
2521 1 28.5011 9.04287 0.273232 -3.26038 
1435 1 32.157 10.5048 1.10826 -1.73972 
2523 1 30.4212 10.0897 2.17111 -2.39423 
495 1 35.5107 9.14739 1.03732 -3.25613 
502 1 35.4772 12.0309 1.29904 -3.0885 
504 1 36.1394 10.3776 3.5821 -3.2623 
1440 1 33.7043 11.9801 3.06108 -3.08021 
505 1 38.1919 11.9713 2.30464 -3.31662 
506 1 38.2255 9.08773 2.04292 -3.35539 
509 1 40.9402 9.02807 3.04852 -3.34263 
521 1 40.9066 11.9116 3.31024 -3.35134 
571 1 40.278 10.6814 0.765457 -3.32971 
582 1 2.0091 13.5053 2.03277 -3.32919 
594 1 4.06159 15.099 0.755309 -3.24977 
595 1 4.69025 16.3292 3.30009 -3.32881 
596 1 4.72382 13.4457 3.03837 -3.28403 
597 1 6.77632 15.0394 1.76091 -3.22019 
599 1 7.43855 13.386 4.04397 -3.21365 
610 1 9.49104 14.9797 2.76651 -1.67956 
1816 1 9.73299 15.0862 0.779362 -2.13576 
2260 1 11.3523 14.123 3.62637 -2.68929 
1817 1 12.4994 14.7148 0.00879745 -2.16759 
2264 1 15.3445 13.2115 3.63209 -3.22639 
2290 1 13.5145 14.3827 1.71798 -2.17226 
2293 1 17.5068 13.4712 1.72371 -2.81517 
2475 1 17.7589 14.8054 3.54505 -2.85797 
2476 1 19.5156 12.5686 3.00156 -3.10418 
2477 1 20.4951 15.2793 2.72438 -3.14053 
2478 1 22.2517 13.0425 2.18089 -3.21573 
2481 1 24.1718 14.0893 4.07876 -3.29794 
2526 1 21.3111 14.7065 0.00583076 -3.10569 
1436 1 27.5127 13.7345 2.3483 -1.69816 
1504 1 26.1246 15.1459 0.235076 -2.6914 
2530 1 24.9878 13.5165 1.36022 -2.93245 
2531 1 28.6646 12.3265 2.7146 -1.74167 
1439 1 31.3822 13.5949 3.6811 -3.21714 
1508 1 29.9941 15.0064 1.56789 -3.27763 
1509 1 32.3163 13.3915 0.947865 -3.25051 
1510 1 32.4756 16.2783 0.787474 -3.22799 
503 1 36.1058 13.2611 3.84382 -3.238 
1511 1 34.7978 14.6634 0.167453 -2.80687 
1512 1 33.8637 14.8669 2.90069 -3.20495 
517 1 38.1583 14.8548 2.56636 -3.28389 
520 1 40.873 14.7952 3.57196 -3.34028 
567 1 37.5297 13.6246 0.0215762 -3.27552 
579 1 40.2444 13.565 1.02718 -3.31808 
590 1 1.31329 18.0422 0.0114284 -3.30056 
591 1 1.94195 19.2724 2.55621 -3.25459 
592 1 1.97552 16.3889 2.29449 -3.28814 
593 1 4.02802 17.9826 1.01703 -3.27085 
604 1 4.65667 19.2128 3.56181 -3.30277 
606 1 6.74274 17.9229 2.02263 -2.6207 
1821 1 8.70621 17.7527 1.24854 -2.57006 
1822 1 10.4458 20.0478 0.947163 -3.27912 
1823 1 11.4726 17.3813 0.477986 -3.3078 
1824 1 10.8205 18.2289 3.16885 -2.50818 
1825 1 13.5868 17.8575 2.39829 -3.2563 
1894 1 13.2122 19.6764 0.176602 -3.36397 
1898 1 16.3532 17.4862 1.62773 -3.11684 
1902 1 15.3264 20.1526 2.09691 -2.33591 
2491 1 16.0023 17.0422 4.08854 -3.10239 
2493 1 18.7384 17.5161 3.26787 -3.16303 
2525 1 19.5544 16.9433 0.549321 -2.99892 
2986 1 17.3676 20.1882 2.14266 -2.3543 
1513 1 23.8025 16.7608 0.855097 -2.85468 
1527 1 23.0277 19.8509 3.42795 -3.0327 
2532 1 21.4745 17.9901 2.4472 -3.00184 
1515 1 26.284 18.0327 0.0746841 -3.20445 
1516 1 25.3499 18.2361 2.80793 -3.17387 
1517 1 27.672 16.6212 2.18791 -3.27008 
1518 1 27.8313 19.508 2.02751 -3.16339 
1519 1 30.1535 17.8931 1.40749 -3.32431 
1521 1 31.5415 16.4817 3.52071 -3.26966 
1522 1 31.7009 19.3685 3.36032 -3.10931 
1523 1 34.023 17.7536 2.7403 -3.23427 
3850 1 35.5398 20.2227 0.143987 -3.3103 
3866 1 36.5177 19.7751 2.83247 -2.62951 
516 1 38.1247 17.7384 2.82808 -3.18272 
534 1 40.8395 17.6787 3.83368 -3.33291 
575 1 37.4961 16.5082 0.283294 -1.33344 
578 1 40.2108 16.4485 1.28889 -3.29789 
588 1 40.1772 19.3321 1.55061 -1.49684 
3852 1 38.2957 19.4433 0.571217 -2.61165 
601 1 1.90837 22.156 2.81793 -2.89617 
602 1 3.99444 20.8661 1.27875 -3.29325 
1174 1 1.91142 24.4931 2.79694 -2.97146 
1234 1 3.83255 24.1365 0.659975 -3.25482 
3962 1 0.0968979 23.6256 0.266934 -3.27015 
605 1 6.70916 20.8065 2.28435 -3.03838 
1235 1 6.37944 22.8688 1.19939 -2.07997 
1248 1 4.45831 23.2254 3.33635 -3.18731 
613 1 9.42389 20.7468 3.28994 -3.2038 
1308 1 10.3028 23.8955 0.63156 -3.11613 
1321 1 8.38164 24.2521 2.76852 -3.26592 
1323 1 10.9285 22.9845 3.30793 -3.24425 
1900 1 12.1854 22.3429 0.645783 -2.67798 
1826 1 12.5601 20.524 2.86747 -3.1984 
2988 1 13.5707 23.456 1.89979 -2.3955 
2991 1 15.3374 24.3818 3.99892 -3.19775 
2990 1 16.4075 22.8928 1.75789 -3.27802 
2993 1 18.1741 23.8186 3.85702 -3.24796 
3016 1 19.2442 22.3296 1.61599 -3.26177 
3017 1 21.1209 24.4709 1.08932 -3.32928 
3018 1 22.081 21.7663 1.47409 -3.20264 
3019 1 21.0109 23.2554 3.71513 -3.21831 
3020 1 23.8476 22.6921 3.57323 -3.01102 
3071 1 23.9576 23.9077 0.94742 -3.29507 
3072 1 24.9177 21.2031 1.33219 -3.20466 
3073 1 26.7944 23.3445 0.805522 -1.67308 
3742 1 28.2502 22.1132 1.55078 -2.28562 
1532 1 29.3787 20.9833 3.98034 -3.17764 
3781 1 29.1369 24.4282 0.0543983 -3.1803 
3783 1 31.8927 23.6488 0.481625 -3.28604 
3784 1 30.1148 23.9805 2.74287 -3.14559 
3785 1 31.0061 21.3338 1.97801 -3.07264 
3786 1 32.8706 23.2012 3.17011 -3.24974 
3787 1 33.7619 20.5544 2.40524 -3.17593 
3862 1 34.6486 22.8694 0.90886 -3.30329 
3865 1 35.6264 22.4218 3.59734 -3.19872 
3864 1 37.4044 22.09 1.33609 -3.3127 
3963 1 39.2689 23.9574 2.52819 -3.21446 
3964 1 40.1602 21.3106 1.76332 -2.09164 
1171 1 0.74097 28.055 1.15029 -3.12091 
1173 1 1.36673 27.144 3.82666 -3.27606 
1244 1 3.28786 26.7874 1.6897 -3.32281 
1245 1 5.29006 28.1707 3.25883 -3.35132 
1246 1 5.83475 25.5198 2.22911 -3.3331 
1307 1 7.75588 25.1631 0.0921487 -3.33364 
1317 1 7.21119 27.8141 1.12187 -3.35134 
1320 1 7.83695 26.9031 3.79824 -3.32977 
1319 1 9.75808 26.5464 1.66128 -3.33411 
1384 1 11.7603 27.9298 3.23042 -3.28121 
1385 1 12.305 25.2788 2.20069 -2.88295 
2989 1 15.4474 25.5974 1.37312 -3.36464 
2996 1 14.4873 28.3019 0.988346 -3.16765 
2997 1 14.3773 27.0864 3.61415 -3.21244 
2999 1 17.214 26.5231 3.47225 -3.30012 
3015 1 18.2841 25.0341 1.23122 -3.34355 
3026 1 17.324 27.7387 0.846449 -3.31919 
3028 1 20.1608 27.1755 0.70455 -3.35135 
3029 1 19.0907 28.6645 2.94559 -3.29798 
3030 1 20.0508 25.9599 3.33036 -3.29944 
3031 1 21.9274 28.1013 2.80368 -3.32685 
3032 1 22.8875 25.3967 3.18846 -3.29607 
3084 1 22.9975 26.6123 0.562651 -3.34028 
3086 1 25.8343 26.049 0.420753 -3.25878 
3087 1 24.7642 27.538 2.66179 -3.31807 
3088 1 25.7243 24.8335 3.04656 -3.2721 
3089 1 27.6009 26.9748 2.51989 -3.20832 
3782 1 31.0015 26.2955 1.2465 -3.21229 
3788 1 31.9793 25.8479 3.93498 -3.20279 
3859 1 34.644 27.8311 0.177342 -3.3092 
3861 1 33.7573 25.5161 1.67372 -3.29581 
3863 1 36.5131 24.7367 2.10095 -3.26777 
3869 1 32.866 28.1628 2.43859 -3.23801 
3871 1 35.6218 27.3835 2.86582 -3.28037 
1172 1 39.7698 28.4116 3.28725 -2.95221 
3959 1 37.3998 27.0517 0.604569 -3.3151 
3961 1 40.1556 26.2723 1.0318 -3.04774 
3969 1 38.3776 26.6041 3.29305 -2.87768 
1170 1 0.196279 30.706 2.18001 -3.35169 
1240 1 2.11741 30.3494 0.0430492 -3.36495 
1243 1 2.74317 29.4383 2.71942 -3.33947 
1255 1 2.19848 32.0893 3.74915 -3.35133 
1241 1 4.11961 31.7327 1.61218 -3.35135 
1242 1 4.6643 29.0817 0.58246 -3.34656 
1314 1 8.04293 32.7594 1.04436 -3.31146 
1316 1 6.6665 30.465 2.1516 -3.35135 
1315 1 8.58763 30.1084 0.0146339 -3.34027 
1318 1 9.21338 29.1974 2.69101 -3.34027 
1332 1 8.66869 31.8483 3.72073 -3.35134 
1380 1 10.5898 31.4917 1.58377 -3.32742 
1381 1 11.1345 28.8408 0.554045 -3.29608 
1382 1 13.1367 30.2241 2.12318 -3.18959 
1410 1 14.5132 32.5184 1.01594 -3.15785 
2998 1 16.2539 29.2277 3.08748 -3.24369 
3025 1 16.3639 30.4433 0.461678 -3.26406 
3027 1 19.2006 29.88 0.319777 -3.31052 
3040 1 18.1305 31.3691 2.56081 -3.22211 
3042 1 20.9673 30.8058 2.41892 -3.27879 
3083 1 22.0374 29.3168 0.17788 -3.35133 
3101 1 23.8041 30.2426 2.27702 -3.28787 
3085 1 24.8741 28.7536 0.0359812 -3.31809 
3102 1 25.6807 32.3839 1.75035 -3.27844 
3103 1 26.6408 29.6794 2.13512 -3.30695 
3162 1 28.5174 31.8207 1.60845 -3.30798 
3163 1 29.4776 29.1162 1.99322 -3.24644 
3164 1 31.3542 31.2575 1.46655 -3.20767 
3165 1 31.2442 30.042 4.09236 -3.26416 
3176 1 30.2841 32.7465 3.70758 -3.2803 
1134 1 36.6783 32.3302 3.77756 -3.23943 
3178 1 33.1208 32.1833 3.56569 -3.21817 
3868 1 33.7527 30.4778 0.942204 -3.20165 
3870 1 34.7305 30.0302 3.63069 -3.21055 
3967 1 36.5085 29.6984 1.36944 -3.28713 
1168 1 38.5994 31.9736 1.6406 -3.30217 
1169 1 39.1441 29.3227 0.610875 -1.29453 
1239 1 1.57272 33.0003 1.07277 -3.32379 
1251 1 1.02803 35.6512 2.1025 -2.54588 
1253 1 3.57492 34.3836 2.64191 -3.30796 
1312 1 5.49605 34.027 0.504947 -3.29477 
1326 1 4.95135 36.6779 1.53467 -3.2134 
1328 1 7.49824 35.4103 2.07408 -3.26973 
1330 1 6.1218 33.116 3.18132 -3.34028 
1378 1 11.9663 33.7861 0.476532 -3.25628 
1388 1 11.4216 36.437 1.50626 -3.22196 
1389 1 9.50044 36.7936 3.64322 -3.22466 
1390 1 10.0451 34.1427 2.61349 -3.3105 
1392 1 12.592 32.875 3.1529 -3.22138 
1411 1 13.9685 35.1694 2.04567 -2.65128 
3311 1 15.9026 34.1693 2.90906 -2.86352 
3041 1 20.0072 33.5104 2.03415 -2.74044 
3314 1 19.8175 35.3079 3.29116 -2.80983 
3327 1 17.2717 36.6871 3.32249 -3.27718 
3353 1 17.9801 35.0061 1.07371 -3.14829 
3100 1 22.8439 32.9472 1.89225 -3.25642 
3317 1 23.7325 36.4464 3.67326 -3.21522 
3354 1 21.895 36.1446 1.45581 -3.21487 
3113 1 24.7206 35.0885 1.36558 -3.10543 
3115 1 27.4473 33.3097 3.84949 -3.27069 
3172 1 27.5573 34.5253 1.22368 -3.23912 
3173 1 29.434 36.6666 0.697008 -2.92114 
3174 1 30.3941 33.9621 1.08178 -3.25505 
3175 1 29.324 35.4511 3.32281 -3.18245 
3177 1 32.1607 34.8878 3.18092 -3.11304 
3224 1 32.2707 36.1034 0.555113 -3.01184 
186 1 36.1571 35.8704 1.18873 -3.0787 
1132 1 36.0525 33.2413 1.10119 -2.69646 
3225 1 33.2308 33.3988 0.939882 -2.54333 
1166 1 39.9758 34.2679 0.533362 -3.25501 
1177 1 38.0547 34.6246 2.67032 -3.23342 
1179 1 40.6016 33.3569 3.20973 -3.31323 
237 1 3.3922 40.8655 0.656564 -3.3058 
238 1 1.807 39.4783 2.64338 -2.70323 
1252 1 3.03022 37.0346 3.67163 -3.33725 
221 1 6.2404 40.3756 0.476945 -3.21524 
1325 1 4.40666 39.3289 2.56439 -3.10954 
1327 1 6.95355 38.0612 3.10381 -3.26162 
12 1 11.807 40.4797 1.06641 -3.27159 
1387 1 8.87468 37.7046 0.966845 -2.77292 
7 1 14.1838 37.1561 0.795502 -3.03521 
8 1 12.5914 38.3695 2.88749 -2.63275 
9 1 14.6131 39.9268 1.5191 -3.11379 
3326 1 14.7259 38.0663 3.35383 -2.65585 
10 1 17.4191 39.3738 1.97178 -1.34058 
42 1 19.4407 40.9311 0.603391 -2.12028 
2201 1 16.4583 40.6381 3.05375 -1.78522 
3330 1 18.6408 39.2048 3.73593 -2.69594 
3357 1 19.3492 37.5239 1.48714 -1.34346 
3331 1 21.1867 37.8256 3.70459 -3.35079 
3359 1 20.7183 40.0416 1.90057 -2.06861 
3360 1 23.2641 38.6624 1.86924 -3.31874 
3361 1 22.7957 40.8784 0.0652194 -1.29132 
3320 1 27.6474 37.5849 4.05535 -3.20429 
3335 1 25.1016 38.9642 4.08669 -3.2688 
3355 1 25.8099 37.2832 1.8379 -3.10341 
3362 1 25.3416 39.4992 0.0338855 -3.17293 
3364 1 27.179 39.8009 2.25134 -3.2649 
3228 1 31.3106 38.808 0.170341 -3.02416 
3356 1 29.7249 38.4217 2.22 -2.87985 
3366 1 29.2565 40.6377 0.415982 -3.19234 
3368 1 31.094 40.9395 2.63343 -3.17184 
187 1 35.1848 38.4092 2.18548 -3.10962 
248 1 33.9217 40.2862 0.378285 -3.19494 
249 1 36.77 39.7964 0.198666 -3.30649 
257 1 34.2124 40.948 3.18223 -2.55457 
184 1 40.8812 37.4294 1.82624 -2.55635 
188 1 38.033 37.9193 2.00586 -1.77181 
234 1 39.6182 39.3065 0.0190475 -3.30991 
252 1 37.0606 40.4581 3.00261 -3.29494 
253 1 39.9088 39.9682 2.82299 -3.24582 
1176 1 37.51 37.2755 3.70005 -1.70773 
322 1 2.71048 3.11601 4.45727 -2.64262 
448 1 1.34822 2.83781 7.35293 -3.22731 
308 1 5.55869 2.62611 4.27765 -3.13434 
1342 1 4.48773 0.118798 6.27049 -3.27631 
1356 1 6.48993 1.50211 7.83962 -2.75076 
3 1 8.62225 1.95657 5.25038 -3.0491 
2195 1 10.5622 1.48794 7.60208 -2.44662 
2202 1 11.1526 4.06688 6.42526 -3.12221 
2203 1 12.7244 1.74763 5.69369 -3.09252 
2206 1 15.1449 3.15544 6.43098 -3.25663 
2208 1 17.3071 3.41513 4.5226 -3.21095 
2210 1 19.1372 2.244 6.43671 -3.19843 
3347 1 20.0099 0.77261 4.14936 -2.73235 
2211 1 21.2994 2.50369 4.52833 -2.63631 
3348 1 21.8474 1.07437 6.36681 -3.15968 
3349 1 23.9249 1.91114 4.53145 -2.6594 
3350 1 23.2165 3.59213 6.78024 -1.98044 
3338 1 26.4707 0.531911 4.50012 -3.31488 
3340 1 28.3082 0.833676 6.71757 -3.31336 
3351 1 25.7624 2.21291 6.7489 -3.21677 
2406 1 29.4029 3.00413 4.90053 -1.00685 
2416 1 31.323 4.05092 6.7984 -2.94555 
3342 1 30.3856 1.67045 4.88222 -1.01734 
3344 1 32.2231 1.97221 7.09967 -1.68332 
425 1 34.1541 3.01679 4.33613 -2.0644 
426 1 34.8163 1.36343 6.6192 -1.48666 
3343 1 32.9315 0.291226 4.85088 -2.68165 
432 1 36.8688 2.95713 5.34173 -1.53958 
434 1 37.531 1.30377 7.6248 -2.62145 
435 1 39.5835 2.89747 6.34733 -3.19137 
1190 1 38.9675 0.359742 6.2989 -2.51807 
447 1 1.31464 5.72136 7.61465 -3.33372 
511 1 0.652415 7.37472 5.33159 -3.34011 
512 1 0.685991 4.49116 5.06987 -3.14943 
514 1 3.40072 4.43151 6.07547 -2.70916 
527 1 3.36714 7.31506 6.33718 -3.30467 
529 1 5.45321 6.0252 4.798 -3.16105 
530 1 6.08186 7.2554 7.34278 -3.20263 
25 1 8.26707 6.83745 4.15291 -3.08613 
2215 1 11.7431 6.64583 5.24844 -3.1412 
2204 1 13.3148 4.32657 4.51688 -2.79308 
2217 1 13.5732 5.4747 7.16255 -3.19155 
2218 1 14.1636 8.05364 5.98573 -3.22805 
2219 1 15.7354 5.73439 5.25417 -3.31037 
2220 1 15.9937 6.88251 7.89984 -3.16519 
2221 1 17.5654 4.56326 7.16828 -3.22377 
2222 1 18.1559 7.1422 5.99146 -3.27501 
2223 1 19.7276 4.82295 5.25989 -3.32517 
2224 1 19.986 5.97107 7.90557 -3.19099 
2409 1 23.1535 7.00377 6.80818 -3.2936 
2410 1 24.9102 4.76696 6.26469 -2.56927 
2411 1 25.8896 7.47774 5.98751 -3.33365 
2412 1 27.6463 5.24093 5.44402 -3.27137 
2413 1 26.8303 5.81376 8.16257 -1.42139 
2470 1 28.6258 7.95171 5.16684 -3.27832 
2415 1 29.5664 6.28773 7.3419 -3.20977 
2471 1 30.3824 5.7149 4.62335 -3.27239 
2474 1 32.3025 6.7617 6.52122 -3.16616 
428 1 34.1205 5.90034 4.59785 -3.22112 
429 1 34.7491 7.13054 7.14263 -3.18022 
430 1 34.7827 4.24699 6.88092 -3.20565 
431 1 36.8352 5.84068 5.60345 -3.36092 
433 1 37.4974 4.18733 7.88651 -3.28785 
442 1 37.4638 7.07088 8.14823 -3.302 
444 1 39.5499 5.78102 6.60905 -3.29587 
508 1 38.8877 7.43438 4.32599 -3.34982 
459 1 1.24749 11.4885 8.13809 -3.35549 
460 1 1.28107 8.60492 7.87637 -3.35614 
523 1 0.618836 10.2583 5.5933 -3.35135 
524 1 2.67133 11.852 4.31584 -3.35134 
526 1 3.33356 10.1986 6.5989 -3.34157 
528 1 5.41963 8.90876 5.05972 -3.24516 
542 1 5.38605 11.7923 5.32144 -3.3055 
544 1 6.04828 10.139 7.6045 -3.29742 
545 1 8.10078 11.7327 6.32704 -3.14521 
546 1 8.13435 8.8491 6.06532 -3.11609 
2259 1 10.7618 11.544 4.80318 -3.10596 
2951 1 10.3586 8.40598 7.61208 -3.09846 
2227 1 12.5919 10.3729 6.71729 -3.17368 
2229 1 15.0124 11.7807 7.45458 -3.17869 
2263 1 14.7541 10.6326 4.80891 -3.2439 
2230 1 16.5841 9.46146 6.72302 -3.22252 
2266 1 17.1746 12.0404 5.5462 -1.78462 
2267 1 18.7464 9.72115 4.81464 -2.55072 
2418 1 20.4562 10.9046 5.17662 -2.49751 
2419 1 19.6402 11.4774 7.89516 -3.20478 
2407 1 22.2129 8.66776 4.63313 -2.90503 
2420 1 21.3969 9.24058 7.35167 -3.24793 
2421 1 22.3763 11.9514 7.07449 -3.33323 
2422 1 24.133 9.71455 6.531 -3.3457 
2480 1 23.1923 11.3785 4.35594 -3.32287 
2426 1 27.8097 8.52453 7.88539 -3.31472 
2484 1 26.8691 10.1885 5.71033 -3.32865 
2472 1 31.3619 8.42568 4.34617 -3.1931 
2486 1 29.6052 10.6625 4.88966 -3.23747 
2487 1 28.7892 11.2353 7.6082 -3.28843 
2488 1 30.5459 8.9985 7.06471 -3.21722 
427 1 34.0869 8.7839 4.85957 -3.1729 
438 1 34.7155 10.0141 7.40435 -3.20249 
439 1 36.768 11.6078 6.12689 -3.26435 
440 1 36.8016 8.72424 5.86517 -3.27546 
1441 1 32.7702 12.1835 5.79432 -3.11427 
443 1 39.5163 8.66458 6.87077 -3.35135 
456 1 39.4828 11.5481 7.13249 -3.34027 
507 1 38.8541 10.3179 4.5877 -3.34028 
522 1 0.58526 13.1418 5.85502 -3.35134 
536 1 0.551682 16.0254 6.11674 -3.35134 
538 1 2.63775 14.7355 4.57756 -3.35134 
539 1 3.26641 15.9657 7.12234 -3.33599 
540 1 3.29998 13.0822 6.86062 -3.34006 
541 1 5.35248 14.6759 5.58316 -3.31905 
543 1 6.01471 13.0225 7.86622 -3.31971 
556 1 5.98113 15.9061 8.12794 -3.2901 
558 1 8.0672 14.6162 6.58875 -3.27124 
608 1 7.40497 16.2696 4.30569 -3.3005 
611 1 10.1197 16.2099 5.31129 -2.59786 
2974 1 11.1615 13.3565 7.65207 -3.19065 
2262 1 13.1823 12.9518 5.54048 -3.21011 
2270 1 13.7728 15.5308 4.36366 -3.17478 
2975 1 12.7637 15.6433 6.88546 -3.26631 
2982 1 15.3637 16.0588 8.0903 -2.14174 
2417 1 18.6996 13.1414 5.72011 -1.84707 
2432 1 16.9429 15.3782 6.2636 -3.15073 
2495 1 19.679 15.8522 5.44293 -3.28089 
2435 1 20.6197 14.1882 7.61798 -3.32223 
2479 1 21.4357 13.6153 4.89944 -3.30997 
2497 1 22.4152 16.3261 4.62226 -3.21472 
2499 1 23.3558 14.6621 6.79731 -3.28159 
1444 1 28.1259 15.4132 7.03436 -2.88799 
2483 1 25.1124 12.4253 6.25382 -3.33392 
2485 1 27.8486 12.8993 5.43315 -3.30835 
2500 1 26.0919 15.1361 5.97664 -2.15227 
2502 1 27.0326 13.4721 8.1517 -3.12436 
1443 1 29.06 15.2098 4.30112 -3.30577 
1445 1 30.4481 13.7984 6.41434 -3.25637 
452 1 36.7345 14.4913 6.38861 -3.24046 
1447 1 32.9296 15.0703 5.63393 -3.25406 
1449 1 34.3176 13.6588 7.74715 -3.20382 
1525 1 35.411 16.3422 4.85352 -3.07825 
455 1 39.4492 14.4317 7.3942 -3.33171 
518 1 38.787 16.085 5.11114 -3.3059 
519 1 38.8205 13.2015 4.84942 -3.30387 
535 1 0.518105 18.9089 6.37846 -3.33102 
537 1 2.60418 17.6191 4.83927 -3.34027 
552 1 3.23283 18.8493 7.38406 -3.31151 
553 1 5.28532 20.443 6.10659 -3.29203 
554 1 5.3189 17.5594 5.84487 -3.30463 
557 1 8.03362 17.4998 6.85047 -3.30335 
560 1 8.00004 20.3833 7.11219 -2.77852 
607 1 7.37139 19.1531 4.56741 -3.23929 
614 1 10.0861 19.0935 5.57301 -3.00798 
2978 1 11.9643 18.307 7.69206 -3.221 
2984 1 11.7658 17.5148 4.91402 -1.68593 
2431 1 15.1863 17.615 6.80709 -2.03025 
2490 1 14.2456 19.279 4.63203 -3.22645 
2503 1 16.1657 20.3258 6.52991 -3.08056 
2434 1 18.863 16.425 8.16148 -3.28509 
2494 1 17.9224 18.089 5.98642 -3.24892 
2505 1 19.8425 19.1358 7.88429 -3.22541 
1451 1 22.0936 20.0544 6.16119 -2.75746 
1452 1 24.4158 18.4395 5.54116 -3.1763 
2496 1 20.6585 18.5629 5.16575 -2.7933 
2498 1 21.5991 16.8989 7.3408 -3.23856 
1442 1 26.7379 16.8246 4.92114 -2.51549 
1454 1 25.8038 17.0281 7.65438 -3.20353 
1455 1 25.9631 19.9148 7.49399 -3.24651 
1456 1 28.2853 18.3 6.87397 -3.33124 
1530 1 26.8972 19.7114 4.76075 -3.28135 
1446 1 30.6074 16.6851 6.25395 -3.36564 
1520 1 29.2194 18.0966 4.14073 -3.31772 
1534 1 30.7668 19.5719 6.09356 -3.33241 
451 1 36.7009 17.3749 6.65032 -3.05848 
465 1 36.6673 20.2585 6.91204 -2.84961 
1450 1 34.4769 16.5456 7.58676 -3.16766 
1524 1 33.0889 17.957 5.47354 -3.2985 
1526 1 35.5704 19.2289 4.69313 -2.5843 
1538 1 34.6363 19.4324 7.42637 -2.85345 
468 1 39.382 20.1988 7.91764 -3.26109 
469 1 39.4156 17.3152 7.65592 -3.32939 
532 1 38.7534 18.9686 5.37286 -3.29032 
548 1 0.484528 21.7925 6.64018 -3.2042 
549 1 2.53702 23.3862 5.36271 -3.2001 
550 1 2.5706 20.5026 5.10099 -3.25461 
551 1 3.19925 21.7328 7.64577 -3.21698 
612 1 7.33781 22.0367 4.82913 -2.70438 
1265 1 7.08627 23.6977 7.58185 -3.04308 
1324 1 9.0074 23.3411 5.44489 -2.75237 
2742 1 11.5732 21.0532 7.25272 -3.18627 
1386 1 12.9307 24.3678 4.87707 -2.45738 
2743 1 13.4567 23.2063 6.80432 -2.8149 
2985 1 13.4607 22.2405 4.52559 -2.61543 
2992 1 16.2975 21.6772 4.38369 -3.16932 
2994 1 19.1342 21.114 4.24179 -3.05054 
2995 1 18.0641 22.603 6.48283 -3.11915 
1467 1 23.641 21.5297 8.11401 -3.19928 
3034 1 22.7775 24.1812 5.81426 -3.18925 
1529 1 24.5751 21.3263 5.38077 -2.96827 
1531 1 27.0566 22.5982 4.60036 -3.20148 
1533 1 28.4446 21.1867 6.71358 -3.27032 
1541 1 26.1225 22.8016 7.3336 -3.23281 
1542 1 28.6039 24.0735 6.55319 -3.08363 
1535 1 30.9261 22.4586 5.93317 -3.23781 
1537 1 32.3141 21.0472 8.04639 -3.29586 
1546 1 32.4735 23.934 7.886 -2.15742 
1536 1 33.2482 20.8438 5.31315 -3.27282 
1539 1 34.7956 22.3191 7.26598 -3.09241 
478 1 39.3485 23.0824 8.17936 -3.11868 
531 1 38.7198 21.8522 5.63458 -3.1333 
533 1 40.8059 20.5623 4.09539 -3.21622 
3875 1 37.4909 24.2891 4.78944 -3.14484 
1187 1 1.99249 26.233 6.50303 -3.21476 
1247 1 3.91362 25.8764 4.36607 -3.27521 
1259 1 3.36893 28.5273 5.39579 -3.34546 
1262 1 3.99469 27.6163 8.07217 -3.2938 
1249 1 6.46051 24.6087 4.90548 -3.24497 
1261 1 5.91582 27.2597 5.93521 -3.30023 
1263 1 4.53938 24.9653 7.04244 -3.26549 
1337 1 7.91802 28.643 7.50434 -3.2717 
1322 1 10.3838 25.6354 4.33766 -3.32486 
1336 1 9.83914 28.2864 5.36738 -3.30962 
1338 1 8.46271 25.992 6.47462 -3.2527 
1398 1 12.386 27.0187 5.90679 -2.86834 
2749 1 12.8665 25.8711 7.77149 -2.92643 
2807 1 14.75 28.0242 7.32309 -2.55434 
2808 1 15.3402 25.3595 6.35592 -3.20982 
3000 1 16.1439 28.0122 5.71329 -2.58032 
2809 1 17.8596 25.3997 7.78253 -3.24249 
3002 1 18.9807 27.4489 5.57139 -3.29246 
3003 1 19.9408 24.7444 5.95616 -3.16295 
3004 1 21.7074 25.6702 8.05529 -1.26352 
3033 1 21.8174 26.8857 5.42949 -3.26783 
3037 1 24.5442 25.1069 7.9134 -3.15626 
3047 1 23.5841 27.8115 7.52863 -3.17359 
3035 1 24.6542 26.3225 5.28759 -3.26672 
3049 1 26.4208 27.2483 7.38673 -3.17347 
3091 1 27.4909 25.7593 5.14569 -3.05446 
3105 1 26.5308 28.4638 4.76092 -3.2905 
3107 1 29.3676 27.9006 4.61903 -3.24666 
3109 1 29.2576 26.6851 7.24483 -1.80842 
3789 1 32.9571 25.4002 6.62346 -2.09827 
3872 1 33.8438 27.7152 5.12708 -3.18262 
3873 1 34.7351 25.0685 4.36221 -3.24059 
3874 1 36.5997 26.9358 5.55431 -2.71885 
3876 1 35.713 24.6208 7.05069 -2.8482 
3879 1 34.8217 27.2676 7.81556 -3.15972 
1175 1 40.9403 24.8497 4.9339 -3.10343 
1185 1 40.3956 27.5006 5.96362 -3.16495 
1182 1 0.277346 32.4459 5.88611 -3.35133 
1183 1 0.822038 29.795 4.85638 -3.32257 
1186 1 1.4478 28.8839 7.53275 -3.28836 
1258 1 2.82424 31.1783 6.42552 -3.35135 
1257 1 4.74537 30.8216 4.28856 -3.35135 
1260 1 5.37113 29.9106 6.96493 -3.33099 
1275 1 4.82643 32.5616 7.99465 -3.35134 
1333 1 6.74756 32.2049 5.85769 -3.34028 
1334 1 7.29225 29.554 4.82797 -3.32917 
1335 1 9.29445 30.9373 6.3971 -3.32944 
1394 1 11.2156 30.5807 4.26014 -3.27084 
1397 1 11.8413 29.6697 6.93651 -2.73896 
1405 1 11.2967 32.3206 7.96624 -2.52955 
1395 1 13.2178 31.964 5.82928 -3.26991 
1396 1 13.7625 29.3131 4.79955 -3.21522 
3310 1 16.371 31.9533 4.71308 -2.95118 
662 1 16.3853 29.8491 8.0548 -2.47431 
3005 1 18.0206 30.1535 5.18662 -3.0444 
3270 1 18.2085 32.2551 6.93053 -3.1399 
3043 1 20.8573 29.5903 5.04472 -2.84535 
3044 1 22.7339 31.7316 4.51805 -3.24158 
3045 1 23.6941 29.0271 4.90282 -3.2996 
3262 1 20.7543 30.8759 6.8992 -2.5601 
3048 1 25.4607 29.9528 7.00196 -2.82452 
3104 1 25.5707 31.1684 4.37615 -3.25216 
3106 1 28.4075 30.6052 4.23425 -3.30814 
3108 1 28.2975 29.3896 6.86006 -3.29057 
3116 1 27.3374 32.0942 6.47529 -2.25133 
3264 1 24.6693 32.0144 7.28129 -2.79598 
3110 1 31.1342 28.8264 6.71816 -3.17393 
3118 1 30.1741 31.531 6.33339 -3.2268 
1135 1 34.7571 32.6868 5.91452 -3.09272 
3180 1 33.0109 30.9677 6.19149 -3.07142 
3877 1 35.7084 29.5825 6.31918 -2.91884 
1136 1 37.304 31.4192 6.45393 -3.1114 
1137 1 37.8487 28.7683 5.42421 -2.62482 
1181 1 39.2251 31.0626 4.31697 -3.33244 
1184 1 39.8509 30.1516 6.99334 -3.31125 
1254 1 1.65379 34.7402 4.77887 -3.33741 
1271 1 3.65598 36.1235 6.348 -3.34276 
1273 1 2.27954 33.8292 7.45524 -3.35132 
1256 1 4.20067 33.4726 5.31828 -3.35134 
1329 1 5.57711 35.7669 4.21104 -3.3211 
1331 1 8.124 34.4993 4.75045 -3.34028 
1347 1 6.20287 34.8559 6.88742 -3.34027 
1349 1 8.74976 33.5883 7.42683 -3.3125 
1391 1 12.0473 35.526 4.18263 -3.23372 
1393 1 10.6709 33.2316 5.28987 -3.27592 
1402 1 10.1262 35.8826 6.31959 -3.24331 
667 1 14.9477 33.6814 8.17974 -3.15367 
1403 1 12.6731 34.6149 6.859 -2.21468 
3325 1 15.1943 35.8503 5.15785 -3.15659 
3271 1 19.5776 34.7729 7.34396 -3.22186 
3286 1 17.0317 36.1521 7.3753 -3.17185 
3312 1 17.7401 34.4711 5.12651 -3.17529 
3313 1 20.2859 33.0919 5.09518 -3.15738 
3272 1 22.1234 33.3936 7.31263 -3.22173 
3275 1 23.4925 35.9114 7.72606 -3.26492 
3315 1 21.655 35.6096 5.50861 -3.29873 
3316 1 24.2009 34.2304 5.47728 -3.20473 
3266 1 28.5842 33.1529 7.66339 -1.55176 
3276 1 26.0384 34.5322 7.69473 -3.26453 
3318 1 25.57 36.7482 5.89071 -3.27715 
3117 1 29.214 34.2355 5.94862 -2.51688 
3179 1 32.0507 33.6723 5.80672 -3.02903 
3268 1 32.4991 34.2915 8.04549 -1.48384 
3280 1 29.9533 35.6707 8.07682 -3.28964 
3322 1 32.0308 36.5075 6.24147 -3.14623 
1133 1 36.1336 34.9812 4.80728 -3.25661 
1141 1 34.2124 35.3378 6.94425 -2.19578 
1143 1 36.7593 34.0701 7.48366 -3.31722 
1178 1 40.0569 36.0079 4.23946 -3.29676 
1180 1 38.6805 33.7135 5.34669 -3.30557 
1193 1 38.1358 36.3645 6.37642 -3.27163 
1195 1 40.6827 35.0968 6.91583 -3.34028 
1197 1 39.3062 32.8025 8.02307 -3.32572 
1267 1 2.48553 39.6855 4.70135 -2.64964 
1268 1 0.564404 40.0421 6.83832 -3.2472 
1269 1 1.10909 37.3912 5.80859 -3.32427 
1270 1 3.11129 38.7745 7.37773 -3.30413 
1341 1 6.40886 40.7122 4.13353 -2.94633 
1343 1 5.03242 38.4179 5.24077 -3.29134 
1344 1 7.03462 39.8012 6.8099 -3.27104 
1345 1 7.57931 37.1502 5.78018 -3.28808 
1346 1 5.65818 37.5068 7.91714 -3.31989 
1399 1 8.95575 39.4445 4.67294 -3.23575 
1400 1 11.5026 38.1769 5.21235 -3.05811 
1401 1 9.58151 38.5335 7.34931 -2.6136 
2193 1 12.1339 40.1187 6.87051 -2.69803 
3302 1 15.855 40.0491 7.82006 -3.00868 
3345 1 14.0175 39.7473 5.60261 -2.76722 
3288 1 18.4009 38.6698 7.78873 -3.28224 
3328 1 16.5634 38.3681 5.57128 -3.20501 
3329 1 19.1092 36.9888 5.53994 -3.32095 
3346 1 17.9325 40.8858 5.98471 -3.23889 
3289 1 20.9467 37.2906 7.75739 -3.27869 
3292 1 22.3158 39.8084 8.17083 -3.30036 
3332 1 20.4783 39.5066 5.95338 -3.35729 
3333 1 23.0241 38.1274 5.92204 -3.32919 
3334 1 22.5558 40.3434 4.11802 -3.33634 
3336 1 24.3933 40.6451 6.33547 -3.32265 
3279 1 27.4075 37.0499 8.10816 -3.3032 
3293 1 24.8616 38.4291 8.13949 -3.33244 
3337 1 26.9391 39.2659 6.30414 -3.27801 
3321 1 29.4849 37.8867 6.2728 -3.24332 
3323 1 31.5624 38.7235 4.43745 -3.19777 
3339 1 29.0165 40.1027 4.46879 -3.26566 
3341 1 30.854 40.4045 6.68624 -3.39018 
1139 1 35.0442 40.2831 6.86673 -1.59404 
1140 1 35.5889 37.6321 5.83701 -3.15464 
3324 1 33.3999 39.0252 6.6549 -2.38667 
1191 1 39.5122 38.6588 5.26918 -3.23476 
1192 1 37.5911 39.0154 7.40614 -3.2279 
1194 1 40.138 37.7478 7.94555 -3.27854 
449 1 1.97687 4.06801 9.89771 -3.10364 