ITEM: TIMESTEP
0
ITEM: NUMBER OF ATOMS
3995
ITEM: BOX BOUNDS pp pp pp
0.0000000000000000e+00 4.0950000000000003e+01
0.0000000000000000e+00 4.0950000000000003e+01
0.0000000000000000e+00 4.0950000000000003e+01
ITEM: ATOMS id type x y z c_peratom cn
236 1 0.543996 0.405362 0.836179 -3.35663 4
239 1 3.68285 0.57721 3.46051 -3.14784 10
255 1 0.834644 1.06711 3.64013 -3.33186 8
305 1 2.41984 2.45427 1.65332 -3.40272 11
17 1 7.4086 1.29608 2.70572 -2.94776 12
18 1 6.62419 3.40627 0.884648 -2.55994 12
20 1 7.83783 4.06676 3.42931 -3.34231 17
306 1 5.26804 1.96438 1.4737 -2.42782 10
11 1 9.00099 0.0826545 0.613736 -3.27435 7
13 1 10.2146 0.743146 3.1584 -3.3612 11
15 1 12.2363 2.3004 1.79001 -3.33303 13
19 1 9.43022 2.85334 1.33733 -3.30852 11
21 1 10.6439 3.51383 3.88199 -3.30432 19
14 1 13.0207 0.190211 3.61108 -2.13197 8
16 1 15.0423 1.74747 2.24269 -0.0868928 14
51 1 14.2579 3.85766 0.42162 -3.26918 12
2205 1 14.8866 2.00732 3.78531 -0.796463 16
41 1 16.6347 0.53404 0.150708 -3.31524 5
2209 1 18.8788 1.09588 3.79104 0.385679 13
2236 1 17.0488 2.26701 1.87693 -2.55344 13
2239 1 19.4693 3.67482 2.61422 -3.4066 18
2240 1 21.0411 1.35557 1.88265 -2.90712 11
2241 1 21.6315 3.93451 0.705833 -3.39608 11
2243 1 23.4616 2.76338 2.61994 -2.69314 17
2244 1 25.6238 3.02307 0.711559 -2.04074 11
3363 1 24.6332 0.230153 2.28267 -3.3806 9
3365 1 26.7107 1.06692 0.447316 -2.99456 8
3367 1 28.5482 1.36868 2.66477 -2.43134 12
3369 1 26.0023 2.74791 2.6961 -0.342335 16
2461 1 30.2189 2.4313 2.18198 -2.39891 14
2463 1 32.1391 3.4781 4.07985 -2.57857 20
250 1 35.7976 1.38515 1.19542 -3.35203 11
256 1 32.9494 1.87505 1.37504 -3.30942 11
258 1 36.0882 2.04689 3.99937 -1.12906 18
251 1 38.6458 0.895261 1.0158 -3.34828 6
254 1 38.9364 1.557 3.81975 -3.34803 12
319 1 37.6734 3.43406 2.01255 -2.73761 13
320 1 40.5216 2.94416 1.83294 -3.33792 7
321 1 1.44748 4.99307 2.65007 -0.748864 12
358 1 3.03267 6.38025 0.663258 -1.79295 9
510 1 0.0237617 6.14452 2.7868 -1.71237 10
513 1 2.73849 6.08486 3.7924 -2.37902 16
574 1 2.07626 7.73821 1.50934 -1.80067 12
24 1 7.05342 6.17695 1.60824 -3.4626 15
307 1 4.29568 4.50318 2.47045 -3.30239 18
587 1 4.79098 7.67856 2.51494 -3.41465 18
22 1 9.85946 5.62402 2.06092 -3.28692 17
60 1 11.8811 7.18128 0.692532 -3.35595 13
65 1 9.07505 7.73421 0.23985 -3.40245 9
2245 1 9.91302 7.81696 3.33433 2.45794 21
23 1 12.6655 5.07108 2.5136 -2.70808 19
2235 1 15.477 4.58626 2.60849 -3.28346 18
2248 1 13.9053 6.90552 3.34006 -3.1331 20
2250 1 16.0675 7.16521 1.43167 -3.33559 16
2237 1 17.6392 4.84595 0.700107 -2.86835 13
2252 1 17.8976 5.99408 3.34578 -3.36202 19
2254 1 20.0598 6.25377 1.4374 -3.41292 15
2255 1 20.3181 7.40189 4.08307 -3.07718 21
2256 1 21.8898 5.08264 3.35151 -3.32932 20
2257 1 22.4803 7.66158 2.17469 -3.2497 16
2258 1 24.0521 5.34233 1.44312 -3.29349 16
2408 1 23.9695 6.43095 4.08963 -3.25314 20
2405 1 25.7262 4.19414 3.54614 -1.23358 22
2458 1 27.5217 6.3321 0.550414 -3.28037 12
2460 1 28.4623 4.66811 2.72547 -3.35612 18
2467 1 26.7056 6.90492 3.26896 -3.35641 19
2459 1 29.2783 4.09529 0.00692177 -2.53953 10
2462 1 31.1984 5.14208 1.9048 -3.1378 19
2469 1 29.4418 7.37889 2.44829 -3.4052 18
2524 1 32.1779 7.85286 1.62762 -0.490696 16
317 1 36.4104 5.31112 0.205357 -0.178391 10
493 1 33.4918 4.67014 2.05307 -2.87401 19
494 1 33.4582 7.5537 2.31479 0.331487 19
496 1 35.5443 6.26384 0.775605 -0.204304 14
497 1 36.173 7.49404 3.32039 -3.37656 20
498 1 36.2065 4.61048 3.05867 -2.78203 21
2473 1 33.1185 6.18888 3.80267 1.32198 20
318 1 39.2586 4.82123 0.0257385 -3.19892 9
499 1 38.259 6.20418 1.7812 -3.14271 14
500 1 38.9213 4.55082 4.06427 -3.33085 15
572 1 40.3115 7.79787 0.503739 -3.35932 6
525 1 2.70491 8.96841 4.05412 -3.38678 17
583 1 2.04268 10.6218 1.77106 -3.36346 11
26 1 7.48266 8.94764 2.33183 -2.74499 20
584 1 4.09517 12.2155 0.493592 -3.39345 11
585 1 4.12875 9.33191 0.231873 -2.77607 10
586 1 4.7574 10.5621 2.77666 -3.36607 18
598 1 6.80989 12.1558 1.49919 -3.35654 13
600 1 7.47212 10.5025 3.78225 -2.64141 20
27 1 10.2887 8.3947 2.78451 2.38105 20
68 1 9.50428 10.5049 0.963441 -0.792116 14
2246 1 10.5035 10.3959 2.15751 -0.0664415 17
2247 1 12.3335 9.22477 4.07162 -3.32801 19
2249 1 14.4958 9.48446 2.16324 -3.35528 17
2251 1 16.3258 8.31333 4.07735 -3.33998 20
2261 1 12.924 11.8037 2.8948 -3.31534 21
2280 1 12.6657 10.6556 0.249127 -1.82411 13
2291 1 15.0862 12.0634 0.986417 -3.38687 14
2253 1 18.488 8.57302 2.16896 -3.41103 17
2265 1 16.9163 10.8923 2.90053 -3.37306 19
2281 1 16.658 9.74415 0.254852 -3.30873 12
2294 1 19.0785 11.152 0.992143 -3.26902 12
2269 1 20.9086 9.98084 2.90625 -3.18798 17
2285 1 20.6502 8.83271 0.260578 -3.3401 10
2464 1 24.0084 10.8057 1.6374 -3.29381 14
2465 1 25.765 8.5689 1.09391 -3.21439 13
2466 1 24.949 9.14173 3.81245 -3.34714 19
2468 1 27.6851 9.6157 2.99178 -3.33825 18
2482 1 25.9285 11.8525 3.53527 -3.3198 20
2520 1 26.7445 11.2797 0.816723 -3.34769 12
2521 1 28.5011 9.04287 0.273232 -3.33934 11
1435 1 32.157 10.5048 1.10826 -1.90825 14
1437 1 29.8348 12.1196 1.72828 -0.0960079 14
1438 1 31.2229 10.7082 3.8415 -0.546922 20
2523 1 30.4212 10.0897 2.17111 -0.72537 16
495 1 35.5107 9.14739 1.03732 -3.3507 14
502 1 35.4772 12.0309 1.29904 -3.18982 15
504 1 36.1394 10.3776 3.5821 -3.3568 18
1440 1 33.7043 11.9801 3.06108 -2.59846 21
505 1 38.1919 11.9713 2.30464 -3.36926 17
506 1 38.2255 9.08773 2.04292 -3.38319 14
509 1 40.9402 9.02807 3.04852 -3.37602 9
521 1 40.9066 11.9116 3.31024 -3.35134 11
571 1 40.278 10.6814 0.765457 -3.32971 8
582 1 2.0091 13.5053 2.03277 -3.35134 11
594 1 4.06159 15.099 0.755309 -3.37124 12
595 1 4.69025 16.3292 3.30009 -3.39243 19
596 1 4.72382 13.4457 3.03837 -3.32569 18
597 1 6.77632 15.0394 1.76091 -3.3574 14
599 1 7.43855 13.386 4.04397 -3.28271 19
610 1 9.49104 14.9797 2.76651 -1.8758 18
1816 1 9.73299 15.0862 0.779362 -2.25954 14
2260 1 11.3523 14.123 3.62637 -2.8595 18
2289 1 11.0939 12.9749 0.980691 -1.04035 12
1817 1 12.4994 14.7148 0.00879745 -2.18564 11
2264 1 15.3445 13.2115 3.63209 -3.34964 20
2290 1 13.5145 14.3827 1.71798 -2.33325 16
2296 1 15.935 15.7905 2.45527 -0.956455 15
2268 1 19.3368 12.3001 3.63782 2.67484 20
2293 1 17.5068 13.4712 1.72371 -2.93807 14
2475 1 17.7589 14.8054 3.54505 -2.71257 19
2476 1 19.5156 12.5686 3.00156 2.35594 18
2477 1 20.4951 15.2793 2.72438 -3.28711 19
2478 1 22.2517 13.0425 2.18089 -3.34118 16
2481 1 24.1718 14.0893 4.07876 -3.36818 18
2526 1 21.3111 14.7065 0.00583076 -3.34331 9
2529 1 23.2312 15.7533 1.90371 -0.751269 14
1436 1 27.5127 13.7345 2.3483 -1.77985 14
1504 1 26.1246 15.1459 0.235076 -2.7825 10
2530 1 24.9878 13.5165 1.36022 -2.9905 13
2531 1 28.6646 12.3265 2.7146 0.822698 18
1439 1 31.3822 13.5949 3.6811 -3.34977 19
1508 1 29.9941 15.0064 1.56789 -3.33321 13
1509 1 32.3163 13.3915 0.947865 -3.41247 15
1510 1 32.4756 16.2783 0.787474 -3.32846 12
501 1 35.4436 14.9145 1.56076 0.185258 17
503 1 36.1058 13.2611 3.84382 -3.39219 19
1511 1 34.7978 14.6634 0.167453 -0.311346 14
1512 1 33.8637 14.8669 2.90069 -2.50234 20
517 1 38.1583 14.8548 2.56636 -3.37923 18
520 1 40.873 14.7952 3.57196 -3.35134 11
567 1 37.5297 13.6246 0.0215762 -3.34929 11
579 1 40.2444 13.565 1.02718 -3.34027 9
590 1 1.31329 18.0422 0.0114284 -3.45758 8
591 1 1.94195 19.2724 2.55621 -3.34951 13
592 1 1.97552 16.3889 2.29449 -3.35197 12
593 1 4.02802 17.9826 1.01703 -3.40289 13
604 1 4.65667 19.2128 3.56181 -3.37423 19
606 1 6.74274 17.9229 2.02263 -2.72348 16
609 1 9.45746 17.8633 3.02823 1.05849 18
1821 1 8.70621 17.7527 1.24854 -1.34704 13
1822 1 10.4458 20.0478 0.947163 -3.32507 12
1823 1 11.4726 17.3813 0.477986 -3.3838 14
1824 1 10.8205 18.2289 3.16885 0.523192 19
1825 1 13.5868 17.8575 2.39829 -3.40057 18
1894 1 13.2122 19.6764 0.176602 -3.38212 11
1898 1 16.3532 17.4862 1.62773 -1.91552 14
1902 1 15.3264 20.1526 2.09691 -2.2551 15
2491 1 16.0023 17.0422 4.08854 -2.39322 19
2492 1 16.9818 19.7529 3.81136 -0.577696 20
2493 1 18.7384 17.5161 3.26787 -3.31391 20
2525 1 19.5544 16.9433 0.549321 -3.20945 11
2986 1 17.3676 20.1882 2.14266 -0.596561 13
1513 1 23.8025 16.7608 0.855097 0.628082 12
1514 1 23.9618 19.6475 0.694704 -0.251087 10
1527 1 23.0277 19.8509 3.42795 -3.26512 17
2532 1 21.4745 17.9901 2.4472 -3.25865 17
1515 1 26.284 18.0327 0.0746841 -3.35153 11
1516 1 25.3499 18.2361 2.80793 -3.35505 18
1517 1 27.672 16.6212 2.18791 -3.33536 14
1518 1 27.8313 19.508 2.02751 -3.26647 15
1519 1 30.1535 17.8931 1.40749 -3.32431 12
1521 1 31.5415 16.4817 3.52071 -3.33435 18
1522 1 31.7009 19.3685 3.36032 -3.10968 16
1523 1 34.023 17.7536 2.7403 -3.32947 18
3850 1 35.5398 20.2227 0.143987 -3.34708 10
3866 1 36.5177 19.7751 2.83247 -2.72771 17
516 1 38.1247 17.7384 2.82808 -3.32551 18
534 1 40.8395 17.6787 3.83368 -3.3908 10
575 1 37.4961 16.5082 0.283294 -1.48667 13
578 1 40.2108 16.4485 1.28889 -3.3753 10
588 1 40.1772 19.3321 1.55061 -1.6015 10
3852 1 38.2957 19.4433 0.571217 -2.52346 12
589 1 1.27972 20.9258 0.273146 1.82405 10
601 1 1.90837 22.156 2.81793 -3.07879 14
602 1 3.99444 20.8661 1.27875 -3.41165 14
1174 1 1.91142 24.4931 2.79694 -3.11553 11
1234 1 3.83255 24.1365 0.659975 -3.37556 13
3962 1 0.0968979 23.6256 0.266934 -2.76191 6
603 1 4.62309 22.0963 3.82353 0.410939 19
605 1 6.70916 20.8065 2.28435 -3.13075 17
1235 1 6.37944 22.8688 1.19939 -2.12718 11
1248 1 4.45831 23.2254 3.33635 0.438363 19
613 1 9.42389 20.7468 3.28994 -3.27232 18
1308 1 10.3028 23.8955 0.63156 -3.13838 11
1321 1 8.38164 24.2521 2.76852 -3.30943 14
1323 1 10.9285 22.9845 3.30793 -3.3036 17
1900 1 12.1854 22.3429 0.645783 -2.6785 12
1826 1 12.5601 20.524 2.86747 -3.29588 19
2988 1 13.5707 23.456 1.89979 -2.44412 15
2991 1 15.3374 24.3818 3.99892 -3.31096 20
2990 1 16.4075 22.8928 1.75789 -3.32201 15
2993 1 18.1741 23.8186 3.85702 -3.37079 20
3016 1 19.2442 22.3296 1.61599 -3.33297 11
3017 1 21.1209 24.4709 1.08932 -3.32928 13
3018 1 22.081 21.7663 1.47409 -3.30877 11
3019 1 21.0109 23.2554 3.71513 -3.31266 19
3020 1 23.8476 22.6921 3.57323 -3.0177 19
3071 1 23.9576 23.9077 0.94742 -3.41275 12
1528 1 25.5092 21.1228 2.64753 -0.188966 19
3072 1 24.9177 21.2031 1.33219 0.951117 15
3073 1 26.7944 23.3445 0.805522 -1.85626 12
3090 1 28.561 24.2703 2.90466 -0.709704 18
3742 1 28.2502 22.1132 1.55078 -2.36787 14
1532 1 29.3787 20.9833 3.98034 -3.25733 19
3781 1 29.1369 24.4282 0.0543983 -3.26737 11
3783 1 31.8927 23.6488 0.481625 -3.31821 11
3784 1 30.1148 23.9805 2.74287 -0.704582 16
3785 1 31.0061 21.3338 1.97801 -3.10289 14
3786 1 32.8706 23.2012 3.17011 -3.2825 16
3787 1 33.7619 20.5544 2.40524 -3.19211 13
3862 1 34.6486 22.8694 0.90886 -3.31441 12
3865 1 35.6264 22.4218 3.59734 -3.25372 20
3864 1 37.4044 22.09 1.33609 -3.39067 16
3867 1 38.3822 21.6424 4.02457 -1.01862 18
3963 1 39.2689 23.9574 2.52819 -3.19061 14
3964 1 40.1602 21.3106 1.76332 -2.19211 9
1164 1 1.28566 25.4041 0.120563 0.281794 8
1171 1 0.74097 28.055 1.15029 -3.16083 8
1173 1 1.36673 27.144 3.82666 -3.34179 12
1244 1 3.28786 26.7874 1.6897 -3.3605 14
1245 1 5.29006 28.1707 3.25883 -3.35132 19
1246 1 5.83475 25.5198 2.22911 -3.37076 17
1307 1 7.75588 25.1631 0.0921487 -3.34488 10
1317 1 7.21119 27.8141 1.12187 -3.35134 13
1320 1 7.83695 26.9031 3.79824 -3.35192 19
1319 1 9.75808 26.5464 1.66128 -3.37555 14
1384 1 11.7603 27.9298 3.23042 -3.34652 17
1383 1 13.6814 27.5731 1.09346 0.956158 13
1385 1 12.305 25.2788 2.20069 -2.92252 17
2989 1 15.4474 25.5974 1.37312 -3.36651 14
2996 1 14.4873 28.3019 0.988346 0.99291 14
2997 1 14.3773 27.0864 3.61415 -3.26914 22
2999 1 17.214 26.5231 3.47225 -3.36811 19
3015 1 18.2841 25.0341 1.23122 -3.35857 13
3026 1 17.324 27.7387 0.846449 -3.34362 13
3028 1 20.1608 27.1755 0.70455 -3.35135 13
3029 1 19.0907 28.6645 2.94559 -3.33262 19
3030 1 20.0508 25.9599 3.33036 -3.34116 19
3031 1 21.9274 28.1013 2.80368 -3.34901 18
3032 1 22.8875 25.3967 3.18846 -3.33673 18
3084 1 22.9975 26.6123 0.562651 -3.35134 13
3086 1 25.8343 26.049 0.420753 -3.36146 12
3087 1 24.7642 27.538 2.66179 -3.34027 17
3088 1 25.7243 24.8335 3.04656 -3.39815 17
3089 1 27.6009 26.9748 2.51989 -3.28364 16
3782 1 31.0015 26.2955 1.2465 -3.24597 12
3788 1 31.9793 25.8479 3.93498 -3.23969 18
3859 1 34.644 27.8311 0.177342 -3.33146 10
3861 1 33.7573 25.5161 1.67372 -3.29611 13
3863 1 36.5131 24.7367 2.10095 -3.32158 15
3869 1 32.866 28.1628 2.43859 -3.26164 13
3871 1 35.6218 27.3835 2.86582 -3.32725 17
1172 1 39.7698 28.4116 3.28725 -2.94688 12
3959 1 37.3998 27.0517 0.604569 -3.35238 12
3961 1 40.1556 26.2723 1.0318 -2.96859 8
3969 1 38.3776 26.6041 3.29305 -2.9905 17
1170 1 0.196279 30.706 2.18001 -3.38522 8
1240 1 2.11741 30.3494 0.0430492 -3.41312 8
1243 1 2.74317 29.4383 2.71942 -3.35054 15
1255 1 2.19848 32.0893 3.74915 -3.35133 15
1241 1 4.11961 31.7327 1.61218 -3.35135 14
1242 1 4.6643 29.0817 0.58246 -3.35761 11
1314 1 8.04293 32.7594 1.04436 -3.34188 12
1316 1 6.6665 30.465 2.1516 -3.35135 15
1315 1 8.58763 30.1084 0.0146339 -3.35134 10
1318 1 9.21338 29.1974 2.69101 -3.35133 16
1332 1 8.66869 31.8483 3.72073 -3.35134 19
1380 1 10.5898 31.4917 1.58377 -3.34957 14
1381 1 11.1345 28.8408 0.554045 -3.35835 12
1382 1 13.1367 30.2241 2.12318 -3.29306 17
1410 1 14.5132 32.5184 1.01594 -3.27515 12
1412 1 15.1389 31.6074 3.69232 -0.842936 20
2998 1 16.2539 29.2277 3.08748 -3.31854 20
3025 1 16.3639 30.4433 0.461678 -3.33623 12
3027 1 19.2006 29.88 0.319777 -3.31052 11
3040 1 18.1305 31.3691 2.56081 -3.31508 15
3042 1 20.9673 30.8058 2.41892 -3.30181 16
3083 1 22.0374 29.3168 0.17788 -3.35133 11
3101 1 23.8041 30.2426 2.27702 -3.3295 15
3085 1 24.8741 28.7536 0.0359812 -3.3292 10
3102 1 25.6807 32.3839 1.75035 -3.33076 13
3103 1 26.6408 29.6794 2.13512 -3.31808 14
3162 1 28.5174 31.8207 1.60845 -3.3191 13
3163 1 29.4776 29.1162 1.99322 -3.25827 13
3164 1 31.3542 31.2575 1.46655 -3.23948 14
3165 1 31.2442 30.042 4.09236 -3.27911 18
3176 1 30.2841 32.7465 3.70758 -3.32017 21
1134 1 36.6783 32.3302 3.77756 -2.11246 20
3178 1 33.1208 32.1833 3.56569 -3.27083 20
3868 1 33.7527 30.4778 0.942204 -3.24673 15
3870 1 34.7305 30.0302 3.63069 -3.30441 22
3966 1 35.6172 32.3452 2.13431 0.990177 14
3967 1 36.5085 29.6984 1.36944 -3.37889 15
1168 1 38.5994 31.9736 1.6406 -3.37647 12
1169 1 39.1441 29.3227 0.610875 -1.36305 9
3968 1 37.4864 29.2508 4.05792 -0.333504 20
1239 1 1.57272 33.0003 1.07277 -3.3785 8
1251 1 1.02803 35.6512 2.1025 -2.65567 7
1253 1 3.57492 34.3836 2.64191 -3.3633 15
1312 1 5.49605 34.027 0.504947 -3.36651 10
1326 1 4.95135 36.6779 1.53467 -3.30228 12
1328 1 7.49824 35.4103 2.07408 -3.32284 14
1330 1 6.1218 33.116 3.18132 -3.35134 17
1378 1 11.9663 33.7861 0.476532 -3.30786 11
1388 1 11.4216 36.437 1.50626 -1.27394 15
1389 1 9.50044 36.7936 3.64322 -3.30165 20
1390 1 10.0451 34.1427 2.61349 -3.35662 15
1392 1 12.592 32.875 3.1529 -3.33511 18
1411 1 13.9685 35.1694 2.04567 -2.78476 16
3311 1 15.9026 34.1693 2.90906 -3.0404 17
3041 1 20.0072 33.5104 2.03415 -2.7857 13
3314 1 19.8175 35.3079 3.29116 -2.86281 16
3327 1 17.2717 36.6871 3.32249 -3.33707 19
3353 1 17.9801 35.0061 1.07371 -1.11051 10
3100 1 22.8439 32.9472 1.89225 -3.30766 13
3317 1 23.7325 36.4464 3.67326 -3.30376 17
3354 1 21.895 36.1446 1.45581 -3.32622 13
3113 1 24.7206 35.0885 1.36558 -3.22013 12
3114 1 24.6106 33.873 3.99138 -0.780516 19
3115 1 27.4473 33.3097 3.84949 -3.38456 20
3172 1 27.5573 34.5253 1.22368 -3.35101 14
3173 1 29.434 36.6666 0.697008 -3.02917 13
3174 1 30.3941 33.9621 1.08178 -3.29769 14
3175 1 29.324 35.4511 3.32281 -3.32599 20
3177 1 32.1607 34.8878 3.18092 -3.26909 17
3224 1 32.2707 36.1034 0.555113 -3.13733 11
186 1 36.1571 35.8704 1.18873 -3.12601 8
1132 1 36.0525 33.2413 1.10119 0.287806 11
3225 1 33.2308 33.3988 0.939882 -2.60504 14
1166 1 39.9758 34.2679 0.533362 -3.35741 7
1177 1 38.0547 34.6246 2.67032 -3.28364 16
1179 1 40.6016 33.3569 3.20973 -3.33687 9
237 1 3.3922 40.8655 0.656564 -3.3554 6
238 1 1.807 39.4783 2.64338 -1.117 9
1250 1 0.483335 38.3022 3.13222 0.909139 8
1252 1 3.03022 37.0346 3.67163 -3.38647 17
221 1 6.2404 40.3756 0.476945 -3.30268 6
1325 1 4.40666 39.3289 2.56439 -3.17346 12
1327 1 6.95355 38.0612 3.10381 -3.32343 14
6 1 11.3778 37.709 0.342824 0.96978 10
12 1 11.807 40.4797 1.06641 -3.42732 7
1387 1 8.87468 37.7046 0.966845 -2.84784 11
7 1 14.1838 37.1561 0.795502 -3.11845 14
8 1 12.5914 38.3695 2.88749 -2.79354 17
9 1 14.6131 39.9268 1.5191 -3.21872 11
3326 1 14.7259 38.0663 3.35383 -2.8339 20
10 1 17.4191 39.3738 1.97178 -1.51814 11
42 1 19.4407 40.9311 0.603391 -2.22834 8
2201 1 16.4583 40.6381 3.05375 -1.87857 12
3330 1 18.6408 39.2048 3.73593 -2.77532 14
3357 1 19.3492 37.5239 1.48714 -1.42467 14
3331 1 21.1867 37.8256 3.70459 -3.40475 18
3359 1 20.7183 40.0416 1.90057 -2.14524 10
3360 1 23.2641 38.6624 1.86924 -3.38959 12
3361 1 22.7957 40.8784 0.0652194 -1.38247 6
3171 1 26.5972 37.2298 0.838909 0.300675 15
3320 1 27.6474 37.5849 4.05535 -3.3444 20
3335 1 25.1016 38.9642 4.08669 -3.32605 14
3355 1 25.8099 37.2832 1.8379 0.393617 14
3362 1 25.3416 39.4992 0.0338855 -3.27681 7
3364 1 27.179 39.8009 2.25134 -3.39764 11
3181 1 31.2006 37.5924 2.79615 -0.39678 17
3228 1 31.3106 38.808 0.170341 -3.14212 10
3356 1 29.7249 38.4217 2.22 -1.17327 13
3366 1 29.2565 40.6377 0.415982 -3.35284 8
3368 1 31.094 40.9395 2.63343 -3.24393 10
187 1 35.1848 38.4092 2.18548 -3.25337 11
248 1 33.9217 40.2862 0.378285 -3.23729 8
249 1 36.77 39.7964 0.198666 -3.31764 8
257 1 34.2124 40.948 3.18223 -2.71407 12
184 1 40.8812 37.4294 1.82624 -0.413068 9
188 1 38.033 37.9193 2.00586 -1.84762 14
234 1 39.6182 39.3065 0.0190475 -3.34245 7
252 1 37.0606 40.4581 3.00261 -3.43102 12
253 1 39.9088 39.9682 2.82299 -2.9793 8
1176 1 37.51 37.2755 3.70005 -1.8295 18
322 1 2.71048 3.11601 4.45727 -2.82622 18
448 1 1.34822 2.83781 7.35293 -3.25021 13
1355 1 3.94304 2.76974 7.30021 1.66683 22
2 1 5.81621 2.50951 4.7977 2.6408 16
4 1 7.02985 3.17 7.34237 -0.116198 21
308 1 5.55869 2.62611 4.27765 2.66897 18
1342 1 4.48773 0.118798 6.27049 -3.41203 11
1356 1 6.48993 1.50211 7.83962 -1.26269 16
3 1 8.62225 1.95657 5.25038 -3.26617 14
2195 1 10.5622 1.48794 7.60208 -2.62346 12
2202 1 11.1526 4.06688 6.42526 -3.35069 19
2203 1 12.7244 1.74763 5.69369 -3.25127 15
2206 1 15.1449 3.15544 6.43098 -3.39775 16
2207 1 16.7166 0.836187 5.69942 -0.703316 13
2208 1 17.3071 3.41513 4.5226 -3.32127 19
2210 1 19.1372 2.244 6.43671 -3.29656 17
3347 1 20.0099 0.77261 4.14936 0.946741 13
2211 1 21.2994 2.50369 4.52833 -2.74606 17
2226 1 23.7199 3.91151 5.26562 1.43042 22
3348 1 21.8474 1.07437 6.36681 -3.22457 14
3349 1 23.9249 1.91114 4.53145 -2.12643 15
3350 1 23.2165 3.59213 6.78024 0.259357 23
2414 1 28.5869 3.57695 7.61908 0.198163 23
3338 1 26.4707 0.531911 4.50012 -3.45258 13
3340 1 28.3082 0.833676 6.71757 -3.43206 13
3351 1 25.7624 2.21291 6.7489 -3.39025 15
3352 1 27.8398 3.04968 4.91355 -0.455941 20
2406 1 29.4029 3.00413 4.90053 1.41094 18
2416 1 31.323 4.05092 6.7984 -3.1474 25
3342 1 30.3856 1.67045 4.88222 -1.13738 14
3344 1 32.2231 1.97221 7.09967 -1.75826 16
259 1 34.503 0.659726 5.98619 4.51593 13
425 1 34.1541 3.01679 4.33613 -2.15918 20
426 1 34.8163 1.36343 6.6192 2.95871 16
3343 1 32.9315 0.291226 4.85088 -1.63867 10
260 1 37.3512 0.169827 5.80657 -0.591553 11
432 1 36.8688 2.95713 5.34173 -1.62538 20
434 1 37.531 1.30377 7.6248 -2.17768 14
435 1 39.5835 2.89747 6.34733 -3.26732 13
1190 1 38.9675 0.359742 6.2989 -0.57231 7
447 1 1.31464 5.72136 7.61465 -3.37269 15
511 1 0.652415 7.37472 5.33159 -3.36068 13
512 1 0.685991 4.49116 5.06987 -3.1621 14
514 1 3.40072 4.43151 6.07547 -2.22521 20
527 1 3.36714 7.31506 6.33718 -3.43152 17
5 1 6.24544 5.28019 5.52129 0.0915382 22
529 1 5.45321 6.0252 4.798 0.0528484 22
530 1 6.08186 7.2554 7.34278 -2.45411 22
2212 1 7.75081 7.55727 5.24271 6.07356 24
2946 1 7.75856 7.99054 6.40725 5.87704 17
25 1 8.26707 6.83745 4.15291 0.625393 23
2213 1 9.58088 6.38614 7.15682 -0.0530912 25
2215 1 11.7431 6.64583 5.24844 -3.42348 22
2216 1 12.0014 7.79395 7.89411 -1.06957 20
2204 1 13.3148 4.32657 4.51688 -2.88567 21
2217 1 13.5732 5.4747 7.16255 -3.34973 19
2218 1 14.1636 8.05364 5.98573 -3.36919 20
2219 1 15.7354 5.73439 5.25417 -3.34263 21
2220 1 15.9937 6.88251 7.89984 -3.33995 18
2221 1 17.5654 4.56326 7.16828 -3.32572 18
2222 1 18.1559 7.1422 5.99146 -3.38245 20
2223 1 19.7276 4.82295 5.25989 -3.48192 22
2224 1 19.986 5.97107 7.90557 -3.34142 24
2225 1 22.1482 6.23076 5.99718 -0.57986 21
2409 1 23.1535 7.00377 6.80818 -0.610644 25
2410 1 24.9102 4.76696 6.26469 -0.921419 23
2411 1 25.8896 7.47774 5.98751 -3.41997 19
2412 1 27.6463 5.24093 5.44402 -3.04326 20
2413 1 26.8303 5.81376 8.16257 -1.57893 23
2470 1 28.6258 7.95171 5.16684 -3.36338 20
2415 1 29.5664 6.28773 7.3419 -3.3902 22
2471 1 30.3824 5.7149 4.62335 -3.4063 21
2474 1 32.3025 6.7617 6.52122 -3.34648 21
428 1 34.1205 5.90034 4.59785 0.156866 20
429 1 34.7491 7.13054 7.14263 -3.29378 23
430 1 34.7827 4.24699 6.88092 -3.32759 24
431 1 36.8352 5.84068 5.60345 -3.42331 19
433 1 37.4974 4.18733 7.88651 -3.42244 21
442 1 37.4638 7.07088 8.14823 -3.34944 22
444 1 39.5499 5.78102 6.60905 -3.332 13
508 1 38.8877 7.43438 4.32599 -3.38103 14
459 1 1.24749 11.4885 8.13809 -3.35549 12
460 1 1.28107 8.60492 7.87637 -3.35614 12
523 1 0.618836 10.2583 5.5933 -3.35135 11
524 1 2.67133 11.852 4.31584 -3.35134 15
526 1 3.33356 10.1986 6.5989 -3.35767 17
528 1 5.41963 8.90876 5.05972 -3.30655 22
542 1 5.38605 11.7923 5.32144 -3.34956 19
544 1 6.04828 10.139 7.6045 -3.39076 19
545 1 8.10078 11.7327 6.32704 -3.24947 19
546 1 8.13435 8.8491 6.06532 4.63932 21
2214 1 10.1713 8.96508 5.98 -0.433293 21
2259 1 10.7618 11.544 4.80318 -3.32011 20
2951 1 10.3586 8.40598 7.61208 0.855237 22
2227 1 12.5919 10.3729 6.71729 -3.34372 20
2229 1 15.0124 11.7807 7.45458 -3.38038 18
2263 1 14.7541 10.6326 4.80891 -3.33138 18
2230 1 16.5841 9.46146 6.72302 -3.38041 20
2233 1 19.0047 10.8693 7.46031 1.25302 24
2266 1 17.1746 12.0404 5.5462 -1.91958 25
2267 1 18.7464 9.72115 4.81464 -2.63118 23
2418 1 20.4562 10.9046 5.17662 -2.28281 22
2419 1 19.6402 11.4774 7.89516 1.23981 22
2234 1 20.5764 8.55002 6.72875 0.394493 24
2407 1 22.2129 8.66776 4.63313 -2.96178 21
2420 1 21.3969 9.24058 7.35167 0.34832 23
2421 1 22.3763 11.9514 7.07449 -3.41401 22
2422 1 24.133 9.71455 6.531 -3.39699 21
2480 1 23.1923 11.3785 4.35594 -3.39704 19
2426 1 27.8097 8.52453 7.88539 -3.3882 20
2484 1 26.8691 10.1885 5.71033 -3.3519 19
2472 1 31.3619 8.42568 4.34617 -3.12961 21
2486 1 29.6052 10.6625 4.88966 -2.03858 20
2487 1 28.7892 11.2353 7.6082 -3.36379 18
2488 1 30.5459 8.9985 7.06471 -3.3301 19
427 1 34.0869 8.7839 4.85957 -3.34484 19
436 1 34.0533 11.6675 5.12129 0.0181814 19
438 1 34.7155 10.0141 7.40435 -3.35148 21
439 1 36.768 11.6078 6.12689 -3.35475 20
440 1 36.8016 8.72424 5.86517 -3.34275 19
1441 1 32.7702 12.1835 5.79432 -0.639137 20
443 1 39.5163 8.66458 6.87077 -3.35135 13
456 1 39.4828 11.5481 7.13249 -3.35134 13
507 1 38.8541 10.3179 4.5877 -3.35134 15
522 1 0.58526 13.1418 5.85502 -3.35134 11
536 1 0.551682 16.0254 6.11674 -3.35134 11
538 1 2.63775 14.7355 4.57756 -3.35134 15
539 1 3.26641 15.9657 7.12234 -3.33599 17
540 1 3.29998 13.0822 6.86062 -3.34006 17
541 1 5.35248 14.6759 5.58316 -3.31905 18
543 1 6.01471 13.0225 7.86622 -3.31978 17
556 1 5.98113 15.9061 8.12794 -3.30177 17
558 1 8.0672 14.6162 6.58875 -3.2831 19
608 1 7.40497 16.2696 4.30569 -3.34727 19
611 1 10.1197 16.2099 5.31129 -2.6472 19
2974 1 11.1615 13.3565 7.65207 -3.25834 18
2262 1 13.1823 12.9518 5.54048 -3.30777 20
2270 1 13.7728 15.5308 4.36366 -3.30299 20
2271 1 15.6029 14.3597 6.27777 -1.06195 22
2975 1 12.7637 15.6433 6.88546 -3.33002 19
2982 1 15.3637 16.0588 8.0903 -2.13298 20
2417 1 18.6996 13.1414 5.72011 -1.68104 22
2432 1 16.9429 15.3782 6.2636 -1.10986 20
2495 1 19.679 15.8522 5.44293 -3.39483 19
2435 1 20.6197 14.1882 7.61798 -3.39771 21
2479 1 21.4357 13.6153 4.89944 -3.38379 20
2497 1 22.4152 16.3261 4.62226 -3.33272 17
2499 1 23.3558 14.6621 6.79731 -3.37366 19
1444 1 28.1259 15.4132 7.03436 -2.9145 18
2483 1 25.1124 12.4253 6.25382 -3.36439 19
2485 1 27.8486 12.8993 5.43315 -3.38722 18
2500 1 26.0919 15.1361 5.97664 -2.22812 20
2502 1 27.0326 13.4721 8.1517 -3.16088 20
1443 1 29.06 15.2098 4.30112 -3.34713 20
1445 1 30.4481 13.7984 6.41434 -3.37617 19
437 1 34.682 12.8977 7.66607 1.73323 20
452 1 36.7345 14.4913 6.38861 -3.35104 20
515 1 36.0722 16.1447 4.10554 1.14706 19
1447 1 32.9296 15.0703 5.63393 -3.36096 21
1449 1 34.3176 13.6588 7.74715 1.76561 18
1525 1 35.411 16.3422 4.85352 1.29523 22
455 1 39.4492 14.4317 7.3942 -3.35382 13
518 1 38.787 16.085 5.11114 -3.34957 15
519 1 38.8205 13.2015 4.84942 -3.36763 16
535 1 0.518105 18.9089 6.37846 -3.36356 11
537 1 2.60418 17.6191 4.83927 -3.35134 15
552 1 3.23283 18.8493 7.38406 -3.33371 17
553 1 5.28532 20.443 6.10659 -3.36131 18
554 1 5.3189 17.5594 5.84487 -3.32687 18
557 1 8.03362 17.4998 6.85047 -3.34748 17
560 1 8.00004 20.3833 7.11219 -2.84229 15
607 1 7.37139 19.1531 4.56741 -3.30635 19
614 1 10.0861 19.0935 5.57301 -3.09422 19
2978 1 11.9643 18.307 7.69206 -3.25626 19
2984 1 11.7658 17.5148 4.91402 -1.78566 17
2431 1 15.1863 17.615 6.80709 -2.19943 19
2490 1 14.2456 19.279 4.63203 -1.45888 19
2503 1 16.1657 20.3258 6.52991 -2.8377 21
2434 1 18.863 16.425 8.16148 -3.3856 19
2494 1 17.9224 18.089 5.98642 -3.44779 18
2505 1 19.8425 19.1358 7.88429 -3.37136 18
1451 1 22.0936 20.0544 6.16119 -2.9818 18
1452 1 24.4158 18.4395 5.54116 -3.33493 18
2496 1 20.6585 18.5629 5.16575 -2.95192 19
2498 1 21.5991 16.8989 7.3408 -3.31029 20
1442 1 26.7379 16.8246 4.92114 -2.59579 19
1454 1 25.8038 17.0281 7.65438 -1.39213 19
1455 1 25.9631 19.9148 7.49399 -3.35653 19
1456 1 28.2853 18.3 6.87397 -3.37503 21
1530 1 26.8972 19.7114 4.76075 -3.38363 21
1446 1 30.6074 16.6851 6.25395 -3.36564 19
1520 1 29.2194 18.0966 4.14073 -3.32888 20
1534 1 30.7668 19.5719 6.09356 -3.33241 18
451 1 36.7009 17.3749 6.65032 -3.13609 17
465 1 36.6673 20.2585 6.91204 -2.88289 19
1450 1 34.4769 16.5456 7.58676 -3.24395 19
1524 1 33.0889 17.957 5.47354 -3.31965 20
1526 1 35.5704 19.2289 4.69313 -2.67037 21
1538 1 34.6363 19.4324 7.42637 -2.92241 19
468 1 39.382 20.1988 7.91764 -3.32828 12
469 1 39.4156 17.3152 7.65592 -3.34777 12
532 1 38.7534 18.9686 5.37286 -3.3839 16
548 1 0.484528 21.7925 6.64018 -3.29496 9
549 1 2.53702 23.3862 5.36271 -3.30693 15
550 1 2.5706 20.5026 5.10099 -3.33577 15
551 1 3.19925 21.7328 7.64577 -3.30263 18
612 1 7.33781 22.0367 4.82913 -2.77866 16
1265 1 7.08627 23.6977 7.58185 -3.17285 20
1324 1 9.0074 23.3411 5.44489 -2.83573 19
2742 1 11.5732 21.0532 7.25272 -3.27983 18
1386 1 12.9307 24.3678 4.87707 -2.58419 20
2743 1 13.4567 23.2063 6.80432 -2.93827 20
2744 1 14.0469 20.5416 5.83716 -0.566505 20
2985 1 13.4607 22.2405 4.52559 -2.29887 20
2992 1 16.2975 21.6772 4.38369 -2.66334 20
1465 1 19.7715 21.6692 6.78121 0.249404 19
2504 1 18.9019 20.7997 5.70924 2.46424 18
2994 1 19.1342 21.114 4.24179 -0.418944 18
2995 1 18.0641 22.603 6.48283 -1.55315 21
1467 1 23.641 21.5297 8.11401 -3.31239 17
3034 1 22.7775 24.1812 5.81426 -3.29922 20
1529 1 24.5751 21.3263 5.38077 -3.02727 18
1531 1 27.0566 22.5982 4.60036 -2.48623 19
1533 1 28.4446 21.1867 6.71358 -3.32099 19
1541 1 26.1225 22.8016 7.3336 -1.95978 18
1542 1 28.6039 24.0735 6.55319 -3.16606 15
3036 1 25.6143 23.6179 5.67236 -1.02947 17
1535 1 30.9261 22.4586 5.93317 -3.27377 19
1537 1 32.3141 21.0472 8.04639 -3.32655 18
1546 1 32.4735 23.934 7.886 -2.20228 17
1536 1 33.2482 20.8438 5.31315 -3.28704 21
1539 1 34.7956 22.3191 7.26598 -3.16104 18
478 1 39.3485 23.0824 8.17936 -3.28755 12
531 1 38.7198 21.8522 5.63458 -1.04148 15
533 1 40.8059 20.5623 4.09539 -3.3004 11
547 1 40.7723 23.4458 4.35711 -0.400325 11
3875 1 37.4909 24.2891 4.78944 -3.27868 20
1187 1 1.99249 26.233 6.50303 -3.28374 14
1247 1 3.91362 25.8764 4.36607 -3.33263 18
1259 1 3.36893 28.5273 5.39579 -3.34546 19
1262 1 3.99469 27.6163 8.07217 -3.33554 19
1249 1 6.46051 24.6087 4.90548 -3.30683 17
1261 1 5.91582 27.2597 5.93521 -3.32246 18
1263 1 4.53938 24.9653 7.04244 -3.35178 20
1337 1 7.91802 28.643 7.50434 -3.36402 20
1322 1 10.3838 25.6354 4.33766 -3.40869 21
1336 1 9.83914 28.2864 5.36738 -3.41072 20
1338 1 8.46271 25.992 6.47462 -3.36231 20
1339 1 10.4649 27.3753 8.04375 -0.242048 20
1340 1 11.0096 24.7244 7.01403 -0.484579 18
1398 1 12.386 27.0187 5.90679 -2.97455 20
2749 1 12.8665 25.8711 7.77149 -2.70367 23
2807 1 14.75 28.0242 7.32309 -2.65766 19
2808 1 15.3402 25.3595 6.35592 -1.46942 21
3000 1 16.1439 28.0122 5.71329 -2.71427 18
2809 1 17.8596 25.3997 7.78253 -1.77068 20
3001 1 17.104 25.3076 6.09806 0.0340847 18
3002 1 18.9807 27.4489 5.57139 -3.40659 20
3003 1 19.9408 24.7444 5.95616 -3.32134 18
3004 1 21.7074 25.6702 8.05529 -1.38423 17
3006 1 20.7473 28.3747 7.67053 -0.951109 21
3033 1 21.8174 26.8857 5.42949 -3.36356 18
3037 1 24.5442 25.1069 7.9134 -3.27151 17
3047 1 23.5841 27.8115 7.52863 -3.30539 19
3035 1 24.6542 26.3225 5.28759 -3.34271 19
3049 1 26.4208 27.2483 7.38673 -3.26086 16
3091 1 27.4909 25.7593 5.14569 -3.15818 19
3105 1 26.5308 28.4638 4.76092 -3.33504 19
3107 1 29.3676 27.9006 4.61903 -3.27989 15
3109 1 29.2576 26.6851 7.24483 -1.88827 17
3789 1 32.9571 25.4002 6.62346 -2.15383 18
3872 1 33.8438 27.7152 5.12708 -3.2507 17
3873 1 34.7351 25.0685 4.36221 -3.26405 17
3874 1 36.5997 26.9358 5.55431 -2.80452 19
3876 1 35.713 24.6208 7.05069 -2.92808 18
3879 1 34.8217 27.2676 7.81556 -3.28643 19
1138 1 38.4745 27.8572 8.10058 -0.999735 14
1175 1 40.9403 24.8497 4.9339 -0.533024 11
1185 1 40.3956 27.5006 5.96362 -3.27917 11
1182 1 0.277346 32.4459 5.88611 -3.35551 10
1183 1 0.822038 29.795 4.85638 -3.36626 12
1186 1 1.4478 28.8839 7.53275 -3.33004 13
1258 1 2.82424 31.1783 6.42552 -3.35135 17
1257 1 4.74537 30.8216 4.28856 -3.35135 19
1260 1 5.37113 29.9106 6.96493 -3.34207 18
1275 1 4.82643 32.5616 7.99465 -3.35134 19
1333 1 6.74756 32.2049 5.85769 -3.35135 19
1334 1 7.29225 29.554 4.82797 -3.35132 19
1335 1 9.29445 30.9373 6.3971 -3.4089 20
1394 1 11.2156 30.5807 4.26014 -3.36686 20
1397 1 11.8413 29.6697 6.93651 -2.85377 22
1405 1 11.2967 32.3206 7.96624 -2.67804 22
665 1 15.0682 31.6044 6.16575 -0.77262 20
1395 1 13.2178 31.964 5.82928 -2.08979 22