ITEM: TIMESTEP
0
ITEM: NUMBER OF ATOMS
3994
ITEM: BOX BOUNDS pp pp pp
0.0000000000000000e+00 4.0950000000000003e+01
0.0000000000000000e+00 4.0950000000000003e+01
0.0000000000000000e+00 4.0950000000000003e+01
ITEM: ATOMS id type x y z
1 1 9.8794069290161133 32.1393852233886719 24.9333953857421875
2 1 7.7420110702514648 33.8298721313476562 25.9123268127441406
3 1 17.0092926025390625 30.2035865783691406 18.1487426757812500
4 1 12.7344999313354492 33.5845565795898438 20.1066017150878906
5 1 14.8718967437744141 31.8940696716308594 19.1276702880859375
6 1 13.4443492889404297 31.1714820861816406 21.5410671234130859
7 1 16.1913719177246094 32.0734062194824219 21.6989250183105469
8 1 8.4597063064575195 36.9655303955078125 22.0644607543945312
9 1 10.5971021652221680 35.2750396728515625 21.0855293273925781
10 1 9.1695575714111328 34.5524559020996094 23.4989261627197266
11 1 11.3069553375244141 32.8619728088378906 22.5199966430664062
12 1 11.9165773391723633 35.4543800354003906 23.6567802429199219
13 1 14.0539760589599609 33.7638931274414062 22.6778526306152344
14 1 12.6264286041259766 33.0413055419921875 25.0912494659423828
15 1 9.7791795730590820 37.1448631286621094 24.6357116699218750
16 1 10.4890327453613281 34.7317962646484375 26.0701808929443359
17 1 11.0986566543579102 37.3242034912109375 27.2069664001464844
18 1 13.2360515594482422 35.6337165832519531 26.2280311584472656
19 1 15.5895938873291016 35.0297317504882812 15.2798032760620117
20 1 17.7269897460937500 33.3392448425292969 14.3008718490600586
21 1 16.2994422912597656 32.6166572570800781 16.7142715454101562
22 1 19.0464649200439453 33.5185852050781250 16.8721275329589844
23 1 11.3148012161254883 38.4107055664062500 17.2376632690429688
24 1 13.4521961212158203 36.7202186584472656 16.2587318420410156
25 1 12.0246505737304688 35.9976310729980469 18.6721305847167969
26 1 14.1620483398437500 34.3071479797363281 17.6931991577148438
27 1 14.7716722488403320 36.8995552062988281 18.8299865722656250
28 1 16.9090671539306641 35.2090682983398438 17.8510551452636719
29 1 15.4815216064453125 34.4864807128906250 20.2644538879394531
30 1 17.6189193725585938 32.7959938049316406 19.2855262756347656
31 1 18.2285461425781250 35.3884048461914062 20.4223098754882812
32 1 20.3659400939941406 33.6979217529296875 19.4433784484863281
33 1 9.1774034500122070 40.1011924743652344 18.2165908813476562
34 1 9.8872528076171875 37.6881179809570312 19.6510620117187500
35 1 10.4968786239624023 40.2805290222167969 20.7878456115722656
36 1 12.6342763900756836 38.5900421142578125 19.8089141845703125
37 1 11.2067279815673828 37.8674583435058594 22.2223129272460938
38 1 13.3441257476806641 36.1769676208496094 21.2433815002441406
39 1 13.9537515640258789 38.7693824768066406 22.3801651000976562
40 1 16.0911483764648438 37.0788917541503906 21.4012374877929688
41 1 14.6636009216308594 36.3563079833984375 23.8146362304687500
42 1 16.8009948730468750 34.6658172607421875 22.8357048034667969
43 1 17.4106216430664062 37.2582244873046875 23.9724884033203125
44 1 11.8163537979125977 40.4598655700683594 23.3590965270996094
45 1 12.5262050628662109 38.0467948913574219 24.7935676574707031
46 1 15.2732257843017578 38.9487190246582031 24.9514160156250000
47 1 13.8456783294677734 38.2261314392089844 27.3648185729980469
48 1 15.9830741882324219 36.5356369018554688 26.3858909606933594
49 1 14.9878158569335938 37.9860572814941406 8.8606863021850586
50 1 15.6976671218872070 35.5729866027832031 10.2951545715332031
51 1 18.4446868896484375 36.4749069213867188 10.4530076980590820
52 1 19.1545372009277344 34.0618362426757812 11.8874759674072266
53 1 21.9015579223632812 34.9637527465820312 12.0453310012817383
54 1 10.7130222320556641 0.4170349240303040 10.8185453414916992
55 1 12.8504171371459961 39.6765403747558594 9.8396158218383789
56 1 11.4228734970092773 38.9539566040039062 12.2530136108398438
57 1 13.5602703094482422 37.2634735107421875 11.2740821838378906
58 1 14.1698913574218750 39.8558769226074219 12.4108686447143555
59 1 16.3072891235351562 38.1653938293457031 11.4319372177124023
60 1 14.8797445297241211 37.4428062438964844 13.8453350067138672
61 1 17.0171394348144531 35.7523193359375000 12.8664054870605469
62 1 17.6267662048339844 38.3447303771972656 14.0031900405883789
63 1 19.7641620635986328 36.6542434692382812 13.0242586135864258
64 1 18.3366165161132812 35.9316596984863281 15.4376583099365234
65 1 20.4740123748779297 34.2411727905273438 14.4587287902832031
66 1 21.0836372375488281 36.8335800170898438 15.5955133438110352
67 1 21.7934894561767578 34.4205093383789062 17.0299816131591797
68 1 9.2854757308959961 40.6444473266601562 13.2319431304931641
69 1 12.0324974060058594 0.5963638424873352 13.3897962570190430
70 1 10.6049537658691406 40.8237838745117188 15.8031959533691406
71 1 12.7423467636108398 39.1332931518554688 14.8242645263671875
72 1 13.3519716262817383 0.7757003903388977 15.9610490798950195
73 1 15.4893684387207031 40.0352134704589844 14.9821195602416992
74 1 14.0618247985839844 39.3126296997070312 17.3955173492431641
75 1 16.1992206573486328 37.6221427917480469 16.4165859222412109
76 1 16.8088417053222656 40.2145500183105469 17.5533714294433594
77 1 18.9462394714355469 38.5240669250488281 16.5744400024414062
78 1 17.5186958312988281 37.8014831542968750 18.9878387451171875
79 1 19.6560935974121094 36.1109962463378906 18.0089111328125000
80 1 11.9244270324707031 0.0531204231083393 18.3744468688964844
81 1 14.6714448928833008 0.9550369381904602 18.5323028564453125
82 1 13.2439022064208984 0.2324569672346115 20.9456977844238281
83 1 15.3812980651855469 39.4919662475585938 19.9667682647705078
84 1 15.9909200668334961 1.1343772411346436 21.1035537719726562
85 1 18.1283187866210938 40.3938903808593750 20.1246261596679688
86 1 16.7007713317871094 39.6713027954101562 22.5380210876464844
87 1 18.8381690979003906 37.9808158874511719 21.5590896606445312
88 1 14.5633754730224609 0.4117935299873352 23.5169525146484375
89 1 10.0031719207763672 2.8301055431365967 9.3840780258178711
90 1 13.4600439071655273 1.3189513683319092 10.9763994216918945
91 1 15.5974407196044922 40.5784683227539062 9.9974679946899414
92 1 16.2070636749267578 2.2208755016326904 11.1342544555664062
93 1 16.9169158935546875 40.7578010559082031 12.5687208175659180
94 1 19.0543117523193359 39.0673179626464844 11.5897912979125977
95 1 19.6639366149902344 0.7097290158271790 12.7265758514404297
96 1 20.3737869262695312 39.2466545104980469 14.1610441207885742
97 1 22.5111827850341797 37.5561676025390625 13.1821146011352539
98 1 11.3226461410522461 3.0094420909881592 11.9553289413452148
99 1 14.0696678161621094 3.9113662242889404 12.1131820678710938
100 1 12.6421222686767578 3.1887786388397217 14.5265817642211914
101 1 14.7795171737670898 1.4982879161834717 13.5476503372192383
102 1 15.3891439437866211 4.0907030105590820 14.6844348907470703
103 1 17.5265388488769531 2.4002120494842529 13.7055053710937500
104 1 16.0989933013916016 1.6776244640350342 16.1189041137695312
105 1 18.2363891601562500 40.9371376037597656 15.1399717330932617
106 1 18.8460159301757812 2.5795485973358154 16.2767581939697266
107 1 20.9834117889404297 0.8890617489814758 15.2978267669677734
108 1 19.5558662414550781 0.1664779633283615 17.7112236022949219
109 1 13.9615955352783203 3.3681151866912842 17.0978317260742188
110 1 16.7086181640625000 4.2700319290161133 17.2556877136230469
111 1 15.2810707092285156 3.5474479198455811 19.6690826416015625
112 1 17.4184684753417969 1.8569610118865967 18.6901550292968750
113 1 18.0280914306640625 4.4493761062622070 19.8269386291503906
114 1 16.6005458831787109 3.7267882823944092 22.2403373718261719
115 1 18.1361675262451172 4.9926271438598633 14.8422889709472656
116 1 20.2735633850097656 3.3021399974822998 13.8633575439453125
117 1 19.4556407928466797 5.1719636917114258 17.4135398864746094
118 1 7.2403860092163086 36.0819320678710938 29.0469093322753906
119 1 7.9644765853881836 38.4533309936523438 32.3059234619140625
120 1 4.8959846496582031 35.4036254882812500 27.4886436462402344
121 1 4.8954763412475586 34.9990615844726562 30.3558425903320312
122 1 3.2756736278533936 37.0967178344726562 29.1893920898437500
123 1 5.6200752258300781 37.7750244140625000 30.7476596832275391
124 1 3.2751655578613281 36.6921539306640625 32.0565948486328125
125 1 3.9997642040252686 39.4681167602539062 32.4484100341796875
126 1 6.3441648483276367 40.1464233398437500 34.0066757202148438
127 1 4.7238550186157227 0.8895142674446106 35.7074279785156250
128 1 40.2609634399414062 38.1114997863769531 29.3318748474121094
129 1 1.6553633213043213 38.7898063659667969 30.8901443481445312
130 1 40.2604522705078125 37.7069358825683594 32.1990776062011719
131 1 1.6548550128936768 38.3852462768554688 33.7573432922363281
132 1 0.0350523442029953 40.4828987121582031 32.5908927917480469
133 1 2.3794534206390381 0.2112050652503967 34.1491584777832031
134 1 0.0345441848039627 40.0783348083496094 35.4580917358398438
135 1 2.3789458274841309 40.7566452026367188 37.0163612365722656
136 1 0.7591430544853210 1.9042969942092896 35.8499069213867188
137 1 3.1035439968109131 2.5826044082641602 37.4081726074218750
138 1 38.6406517028808594 39.8045921325683594 31.0326271057128906
139 1 39.3647422790527344 1.2259879112243652 34.2916412353515625
140 1 12.6542940139770508 40.6190681457519531 29.6880569458007812
141 1 7.2414011955261230 36.8910560607910156 23.3125076293945312
142 1 7.2408933639526367 36.4864921569824219 26.1797065734863281
143 1 9.5852947235107422 37.1648025512695312 27.7379760742187500
144 1 7.9654917716979980 39.2624511718750000 26.5715236663818359
145 1 10.3098936080932617 39.9407615661621094 28.1297912597656250
146 1 7.9649839401245117 38.8578910827636719 29.4387245178222656
147 1 10.3093852996826172 39.5362014770507812 30.9969902038574219
148 1 8.6895828247070312 0.6838519573211670 29.8305397033691406
149 1 11.0339832305908203 1.3621592521667480 31.3888072967529297
150 1 8.6890745162963867 0.2792897224426270 32.6977386474609375
151 1 9.4136734008789062 3.0552511215209961 33.0895576477050781
152 1 4.8964920043945312 35.8081855773925781 24.6214427947998047
153 1 3.2766892910003662 37.9058380126953125 23.4549903869628906
154 1 5.6210904121398926 38.5841445922851562 25.0132579803466797
155 1 3.2761809825897217 37.5012741088867188 26.3221912384033203
156 1 5.6205821037292480 38.1795845031738281 27.8804588317871094
157 1 4.0007796287536621 40.2772369384765625 26.7140064239501953
158 1 6.3451809883117676 0.0055449008941650 28.2722740173339844
159 1 4.0002717971801758 39.8726730346679688 29.5812072753906250
160 1 6.3446722030639648 40.5509834289550781 31.1394767761230469
161 1 4.7248702049255371 1.6986348628997803 29.9730224609375000
162 1 7.0692706108093262 2.3769421577453613 31.5312900543212891
163 1 4.7243623733520508 1.2940726280212402 32.8402252197265625
164 1 7.0687632560729980 1.9723820686340332 34.3984909057617188
165 1 5.4489607810974121 4.0700340270996094 33.2320404052734375
166 1 7.7933611869812012 4.7483410835266113 34.7903060913085938
167 1 5.4484519958496094 3.6654703617095947 36.0992393493652344
168 1 6.1730504035949707 6.4414315223693848 36.4910583496093750
169 1 0.9322880506515503 37.2275314331054688 21.8967247009277344
170 1 0.9317802786827087 36.8229675292968750 24.7639255523681641
171 1 40.2619781494140625 38.9206199645996094 23.5974731445312500
172 1 1.6563783884048462 39.5989303588867188 25.1557407379150391
173 1 40.2614707946777344 38.5160598754882812 26.4646759033203125
174 1 1.6558703184127808 39.1943664550781250 28.0229415893554688
175 1 0.0360675938427448 0.3420185446739197 26.8564891815185547
176 1 2.3804690837860107 1.0203276872634888 28.4147586822509766
177 1 0.0355597883462906 40.8874588012695312 29.7236900329589844
178 1 2.3799610137939453 0.6157654523849487 31.2819595336914062
179 1 0.7601581215858459 2.7134177684783936 30.1155071258544922
180 1 3.1045594215393066 3.3917250633239746 31.6737728118896484
181 1 0.7596501708030701 2.3088555335998535 32.9827079772949219
182 1 3.1040518283843994 2.9871647357940674 34.5409774780273438
183 1 1.4842488765716553 5.0848169326782227 33.3745231628417969
184 1 3.8286497592926025 5.7631244659423828 34.9327888488769531
185 1 1.4837403297424316 4.6802530288696289 36.2417221069335938
186 1 38.6416664123535156 40.6137123107910156 25.2982254028320312
187 1 38.6411590576171875 40.2091484069824219 28.1654243469238281
188 1 37.0213546752929688 1.3568012714385986 26.9989738464355469
189 1 39.3657569885253906 2.0351104736328125 28.5572414398193359
190 1 37.0208473205566406 0.9522399902343750 29.8661766052246094
191 1 39.3652496337890625 1.6305482387542725 31.4244422912597656
192 1 37.7454452514648438 3.7282004356384277 30.2579898834228516
193 1 40.0898475646972656 4.4065079689025879 31.8162574768066406
194 1 37.7449378967285156 3.3236384391784668 33.1251907348632812
195 1 40.0893402099609375 4.0019474029541016 34.6834602355957031
196 1 38.4695358276367188 6.0995993614196777 33.5170059204101562
197 1 40.8139381408691406 6.7779068946838379 35.0752716064453125
198 1 12.6553096771240234 0.4781908988952637 23.9536533355712891
199 1 12.6548013687133789 0.0736296176910400 26.8208541870117188
200 1 13.3794002532958984 2.8495898246765137 27.2126712799072266
201 1 7.9665074348449707 40.0715751647949219 20.8371219635009766
202 1 10.3109083175659180 40.7498855590820312 22.3953876495361328
203 1 7.9659991264343262 39.6670112609863281 23.7043228149414062
204 1 10.3104009628295898 40.3453216552734375 25.2625885009765625
205 1 8.6905975341796875 1.4929736852645874 24.0961380004882812
206 1 11.0349988937377930 2.1712827682495117 25.6544055938720703
207 1 8.6900901794433594 1.0884124040603638 26.9633407592773438
208 1 11.0344915390014648 1.7667205333709717 28.5216064453125000
209 1 9.4146881103515625 3.8643729686737061 27.3551540374755859
210 1 11.7590894699096680 4.5426802635192871 28.9134216308593750
211 1 9.4141807556152344 3.4598107337951660 30.2223548889160156
212 1 10.1387786865234375 6.2357716560363770 30.6141719818115234
213 1 3.2777047157287598 38.7149581909179688 17.7205886840820312
214 1 5.6221055984497070 39.3932685852050781 19.2788562774658203
215 1 3.2771968841552734 38.3103981018066406 20.5877914428710938
216 1 5.6215977668762207 38.9887084960937500 22.1460571289062500
217 1 4.0017952919006348 0.1363583207130432 20.9796047210693359
218 1 6.3461961746215820 0.8146666288375854 22.5378723144531250
219 1 4.0012869834899902 40.6817970275878906 23.8468055725097656
220 1 6.3456883430480957 0.4101042747497559 25.4050712585449219
221 1 4.7258853912353516 2.5077567100524902 24.2386207580566406
222 1 7.0702867507934570 3.1860659122467041 25.7968883514404297
223 1 4.7253775596618652 2.1031951904296875 27.1058235168457031
224 1 7.0697784423828125 2.7815036773681641 28.6640892028808594
225 1 5.4499759674072266 4.8791556358337402 27.4976367950439453
226 1 7.7943768501281738 5.5574626922607422 29.0559043884277344
227 1 5.4494681358337402 4.4745931625366211 30.3648376464843750
228 1 7.7938690185546875 5.1529026031494141 31.9231071472167969
229 1 6.1740665435791016 7.2505550384521484 30.7566547393798828
230 1 8.5184669494628906 7.9288625717163086 32.3149185180664062
231 1 6.1735577583312988 6.8459911346435547 33.6238555908203125
232 1 6.8981566429138184 9.6219520568847656 34.0156707763671875
233 1 0.9333033561706543 38.0366516113281250 16.1623210906982422
234 1 0.9327955842018127 37.6320915222167969 19.0295238494873047
235 1 40.2629928588867188 39.7297439575195312 17.8630733489990234
236 1 1.6573940515518188 40.4080505371093750 19.4213390350341797
237 1 40.2624855041503906 39.3251800537109375 20.7302742004394531
238 1 1.6568862199783325 40.0034904479980469 22.2885398864746094
239 1 0.0370831936597824 1.1511410474777222 21.1220874786376953
240 1 2.3814845085144043 1.8294494152069092 22.6803550720214844
241 1 0.0365751981735229 0.7465788722038269 23.9892883300781250
242 1 2.3809762001037598 1.4248871803283691 25.5475578308105469
243 1 0.7611736059188843 3.5225393772125244 24.3811035156250000
244 1 3.1055750846862793 4.2008485794067383 25.9393730163574219
245 1 0.7606657743453979 3.1179780960083008 27.2483062744140625
246 1 3.1050670146942139 3.7962861061096191 28.8065719604492188
247 1 1.4852641820907593 5.8939385414123535 27.6401214599609375
248 1 3.8296651840209961 6.5722455978393555 29.1983871459960938
249 1 1.4847561120986938 5.4893765449523926 30.5073204040527344
250 1 3.8291578292846680 6.1676855087280273 32.0655899047851562
251 1 2.2093548774719238 8.2653379440307617 30.8991374969482422
252 1 4.5537557601928711 8.9436445236206055 32.4574012756347656
253 1 2.2088463306427002 7.8607740402221680 33.7663383483886719
254 1 4.5532474517822266 8.5390806198120117 35.3246040344238281
255 1 2.9334449768066406 10.6367349624633789 34.1581497192382812
256 1 5.2778458595275879 11.3150424957275391 35.7164192199707031
257 1 38.6426811218261719 0.4728338122367859 19.5638217926025391
258 1 38.6421737670898438 0.0682725012302399 22.4310226440429688
259 1 37.0223693847656250 2.1659238338470459 21.2645721435546875
260 1 39.3667716979980469 2.8442320823669434 22.8228378295898438
261 1 37.0218620300292969 1.7613625526428223 24.1317729949951172
262 1 39.3662643432617188 2.4396698474884033 25.6900405883789062
263 1 37.7464599609375000 4.5373220443725586 24.5235881805419922
264 1 40.0908622741699219 5.2156314849853516 26.0818557739257812
265 1 37.7459526062011719 4.1327610015869141 27.3907890319824219
266 1 40.0903549194335938 4.8110690116882324 28.9490547180175781
267 1 38.4705505371093750 6.9087214469909668 27.7826042175292969
268 1 40.8149528503417969 7.5870285034179688 29.3408718109130859
269 1 38.4700431823730469 6.5041589736938477 30.6498069763183594
270 1 40.8144454956054688 7.1824679374694824 32.2080726623535156
271 1 39.1946411132812500 9.2801198959350586 31.0416221618652344
272 1 0.5890439748764038 9.9584274291992188 32.5998878479003906
273 1 39.1941337585449219 8.8755569458007812 33.9088211059570312
274 1 35.4020614624023438 3.8590149879455566 22.9653224945068359
275 1 36.1261520385742188 6.2304139137268066 26.2243385314941406
276 1 36.1256446838378906 5.8258519172668457 29.0915412902832031
277 1 36.8502426147460938 8.6018114089965820 29.4833545684814453
278 1 13.3804149627685547 3.6587107181549072 21.4782676696777344
279 1 15.7248172760009766 4.3370199203491211 23.0365371704101562
280 1 13.3799076080322266 3.2541499137878418 24.3454685211181641
281 1 14.1045055389404297 6.0301094055175781 24.7372856140136719
282 1 7.9675226211547852 40.8806991577148438 15.1027202606201172
283 1 7.9670147895812988 40.4761352539062500 17.9699211120605469
284 1 10.3114166259765625 0.2044444084167480 19.5281867980957031
285 1 8.6916131973266602 2.3020954132080078 18.3617362976074219
286 1 11.0360145568847656 2.9804036617279053 19.9200019836425781
287 1 8.6911048889160156 1.8975335359573364 21.2289352416992188
288 1 11.0355062484741211 2.5758419036865234 22.7872028350830078
289 1 9.4157037734985352 4.6734938621520996 21.6207504272460938
290 1 11.7601051330566406 5.3518028259277344 23.1790199279785156
291 1 9.4151954650878906 4.2689328193664551 24.4879531860351562
292 1 11.7595968246459961 4.9472408294677734 26.0462188720703125
293 1 10.1397943496704102 7.0448923110961914 24.8797683715820312
294 1 12.4841957092285156 7.7232003211975098 26.4380340576171875
295 1 10.1392860412597656 6.6403303146362305 27.7469673156738281
296 1 10.8638849258422852 9.4162921905517578 28.1387863159179688
297 1 5.6226134300231934 39.7978286743164062 16.4116554260253906
298 1 4.0028104782104492 0.9454798698425293 15.2452030181884766
299 1 6.3472113609313965 1.6237881183624268 16.8034706115722656
300 1 4.0023026466369629 0.5409191250801086 18.1124038696289062
301 1 6.3467040061950684 1.2192271947860718 19.6706714630126953
302 1 4.7269010543823242 3.3168780803680420 18.5042190551757812
303 1 7.0713019371032715 3.9951863288879395 20.0624847412109375
304 1 4.7263927459716797 2.9123165607452393 21.3714199066162109
305 1 7.0707941055297852 3.5906248092651367 22.9296855926513672
306 1 5.4509911537170410 5.6882762908935547 21.7632331848144531
307 1 7.7953925132751465 6.3665857315063477 23.3215026855468750
308 1 5.4504833221435547 5.2837157249450684 24.6304359436035156
309 1 7.7948842048645020 5.9620237350463867 26.1887035369873047
310 1 6.1750822067260742 8.0596752166748047 25.0222511291503906
311 1 8.5194826126098633 8.7379827499389648 26.5805168151855469
312 1 6.1745738983154297 7.6551132202148438 27.8894519805908203
313 1 8.5189752578735352 8.3334217071533203 29.4477195739746094
314 1 6.8991727828979492 10.4310750961303711 28.2812690734863281
315 1 9.2435731887817383 11.1093816757202148 29.8395347595214844
316 1 6.8986635208129883 10.0265111923217773 31.1484680175781250
317 1 7.6232624053955078 12.8024721145629883 31.5402832031250000
318 1 1.6584091186523438 0.2671717107295990 13.6869354248046875
319 1 40.2635002136230469 40.1343040466308594 14.9958705902099609
320 1 1.6579015254974365 40.8126106262207031 16.5541381835937500
321 1 0.0380986034870148 1.9602627754211426 15.3876867294311523
322 1 2.3824996948242188 2.6385707855224609 16.9459533691406250
323 1 0.0375909209251404 1.5557019710540771 18.2548866271972656
324 1 2.3819921016693115 2.2340102195739746 19.8131542205810547
325 1 0.7621889710426331 4.3316612243652344 18.6467018127441406
326 1 3.1065902709960938 5.0099692344665527 20.2049674987792969
327 1 0.7616810798645020 3.9270992279052734 21.5139026641845703
328 1 3.1060822010040283 4.6054072380065918 23.0721702575683594
329 1 1.4862793684005737 6.7030591964721680 21.9057159423828125
330 1 3.8306808471679688 7.3813686370849609 23.4639854431152344
331 1 1.4857717752456665 6.2984986305236816 24.7729187011718750
332 1 3.8301730155944824 6.9768066406250000 26.3311862945556641
333 1 2.2103698253631592 9.0744590759277344 25.1647338867187500
334 1 4.5547714233398438 9.7527656555175781 26.7229995727539062
335 1 2.2098619937896729 8.6698961257934570 28.0319347381591797
336 1 4.5542635917663574 9.3482055664062500 29.5902042388916016
337 1 2.9344606399536133 11.4458580017089844 28.4237518310546875
338 1 5.2788615226745605 12.1241645812988281 29.9820175170898438
339 1 2.9339520931243896 11.0412940979003906 31.2909507751464844
340 1 5.2783532142639160 11.7196006774902344 32.8492164611816406
341 1 3.6580426692962646 13.4126920700073242 34.5499687194824219
342 1 38.6431884765625000 0.8773937225341797 16.6966209411621094
343 1 39.3677864074707031 3.6533536911010742 17.0884361267089844
344 1 37.0228805541992188 2.5704846382141113 18.3973712921142578
345 1 39.3672790527343750 3.2487928867340088 19.9556369781494141
346 1 40.0918769836425781 6.0247516632080078 20.3474521636962891
347 1 37.7469711303710938 4.9418826103210449 21.6563873291015625
348 1 40.0913696289062500 5.6201906204223633 23.2146530151367188
349 1 38.4715690612792969 7.7178421020507812 22.0482025146484375
350 1 40.8159675598144531 8.3961505889892578 23.6064682006835938
351 1 38.4710617065429688 7.3132810592651367 24.9154033660888672
352 1 40.8154602050781250 7.9915890693664551 26.4736690521240234
353 1 39.1956596374511719 10.0892410278320312 25.3072166442871094
354 1 0.5900591611862183 10.7675485610961914 26.8654861450195312
355 1 39.1951484680175781 9.6846790313720703 28.1744194030761719
356 1 0.5895515680313110 10.3629884719848633 29.7326869964599609
357 1 39.9197502136230469 12.4606399536132812 28.5662345886230469
358 1 1.3141497373580933 13.1389474868774414 30.1245002746582031
359 1 39.9192390441894531 12.0560760498046875 31.4334335327148438
360 1 1.3136419057846069 12.7343854904174805 32.9917030334472656
361 1 36.1266593933105469 6.6349740028381348 23.3571357727050781
362 1 36.8512573242187500 9.4109344482421875 23.7489509582519531
363 1 34.5063476562500000 8.3280649185180664 25.0578861236572266
364 1 36.8507499694824219 9.0063724517822266 26.6161537170410156
365 1 37.5753479003906250 11.7823314666748047 27.0079689025878906
366 1 13.3814306259155273 4.4678335189819336 15.7438659667968750
367 1 13.3809232711791992 4.0632715225219727 18.6110668182373047
368 1 15.7253246307373047 4.7415800094604492 20.1693325042724609
369 1 14.1055212020874023 6.8392314910888672 19.0028800964355469
370 1 16.4499225616455078 7.5175409317016602 20.5611495971679688
371 1 14.1050138473510742 6.4346699714660645 21.8700828552246094
372 1 8.6926288604736328 3.1112189292907715 12.6273345947265625
373 1 11.0370302200317383 3.7895262241363525 14.1856002807617188
374 1 8.6921205520629883 2.7066571712493896 15.4945354461669922
375 1 11.0365219116210938 3.3849654197692871 17.0528011322021484
376 1 9.4167194366455078 5.4826159477233887 15.8863496780395508
377 1 11.7611198425292969 6.1609249114990234 17.4446163177490234
378 1 9.4162111282348633 5.0780544281005859 18.7535495758056641
379 1 11.7606124877929688 5.7563633918762207 20.3118171691894531
380 1 10.1408100128173828 7.8540143966674805 19.1453647613525391
381 1 10.1403017044067383 7.4494528770446777 22.0125675201416016
382 1 12.4847030639648438 8.1277627944946289 23.5708332061767578
383 1 10.8643922805786133 9.8208522796630859 25.2715816497802734
384 1 6.3482270240783691 2.4329099655151367 11.0690670013427734
385 1 4.0033183097839355 1.3500406742095947 12.3780002593994141
386 1 6.3477191925048828 2.0283498764038086 13.9362688064575195
387 1 4.7279167175292969 4.1260004043579102 12.7698173522949219
388 1 7.0723176002502441 4.8043088912963867 14.3280839920043945
389 1 4.7274088859558105 3.7214398384094238 15.6370182037353516
390 1 7.0718097686767578 4.3997478485107422 17.1952838897705078
391 1 5.4520068168640137 6.4973988533020020 16.0288314819335938
392 1 7.7964081764221191 7.1757078170776367 17.5870990753173828
393 1 5.4514989852905273 6.0928373336791992 18.8960323333740234
394 1 7.7959003448486328 6.7711462974548340 20.4542999267578125
395 1 6.1755895614624023 8.4642362594604492 22.1550502777099609
396 1 8.5199909210205078 9.1425447463989258 23.7133178710937500
397 1 2.3830075263977051 3.0431315898895264 14.0787515640258789
398 1 3.1076059341430664 5.8190917968750000 14.4705667495727539
399 1 0.7626968622207642 4.7362227439880371 15.7795009613037109
400 1 3.1070981025695801 5.4145307540893555 17.3377666473388672
401 1 1.4872950315475464 7.5121817588806152 16.1713161468505859
402 1 3.8316960334777832 8.1904897689819336 17.7295818328857422
403 1 1.4867870807647705 7.1076202392578125 19.0385169982910156
404 1 3.8311882019042969 7.7859282493591309 20.5967845916748047
405 1 2.2108776569366455 9.4790191650390625 22.2975330352783203
406 1 4.5552787780761719 10.1573276519775391 23.8558006286621094
407 1 40.0923881530761719 6.4293136596679688 17.4802513122558594
408 1 40.8164749145507812 8.8007116317749023 20.7392673492431641
409 1 39.1961669921875000 10.4938011169433594 22.4400177001953125
410 1 0.5905672311782837 11.1721105575561523 23.9982833862304688
411 1 8.6931362152099609 3.5157790184020996 9.7601327896118164
412 1 11.0375375747680664 4.1940875053405762 11.3184003829956055
413 1 6.3487348556518555 2.8374710083007812 8.2018661499023438
414 1 7.0728254318237305 5.2088699340820312 11.4608831405639648
415 1 38.8694000244140625 14.9446840286254883 22.6592712402343750
416 1 38.7763862609863281 12.2512722015380859 21.6003112792968750
417 1 37.7737655639648438 12.7960491180419922 24.2616062164306641
418 1 40.3160324096679688 13.9837675094604492 24.9762535095214844
419 1 39.3134117126464844 14.5285434722900391 27.6375484466552734
420 1 0.8126657009124756 13.0228481292724609 27.2932357788085938
421 1 0.9056777954101562 15.7162609100341797 28.3521957397460938
422 1 40.7600440979003906 13.5676269531250000 29.9545288085937500
423 1 2.3523116111755371 14.7553453445434570 30.6691780090332031
424 1 38.4253845214843750 15.3608245849609375 17.6809997558593750
425 1 40.8746414184570312 13.8551301956176758 17.3366870880126953
426 1 40.7816276550292969 11.1617183685302734 16.2777271270751953
427 1 39.7790069580078125 11.7064952850341797 18.9390220642089844
428 1 1.2782616615295410 10.2008018493652344 18.5947074890136719
429 1 0.0176517963409424 16.5485401153564453 18.3956470489501953
430 1 39.8720169067382812 14.3999052047729492 19.9979782104492188
431 1 1.4642856121063232 15.5876245498657227 20.7126274108886719
432 1 1.3712732791900635 12.8942127227783203 19.6536674499511719
433 1 0.3686535358428955 13.4389896392822266 22.3149604797363281
434 1 0.2756401300430298 10.7455787658691406 21.2560005187988281
435 1 2.8179070949554443 11.9332942962646484 21.9706497192382812
436 1 1.5572979450225830 18.2810363769531250 21.7715892791748047
437 1 0.4616644382476807 16.1324024200439453 23.3739204406738281
438 1 3.0039308071136475 17.3201179504394531 24.0885696411132812
439 1 2.9109189510345459 14.6267080307006836 23.0296096801757812
440 1 1.9082987308502197 15.1714839935302734 25.6909027099609375
441 1 1.8152861595153809 12.4780731201171875 24.6319427490234375
442 1 4.3575525283813477 13.6657886505126953 25.3465900421142578
443 1 4.2645406723022461 10.9723787307739258 24.2876319885253906
444 1 2.0013096332550049 17.8648967742919922 26.7498626708984375
445 1 4.5435771942138672 19.0526123046875000 27.4645118713378906
446 1 4.4505643844604492 16.3592014312744141 26.4055519104003906
447 1 3.4479448795318604 16.9039783477783203 29.0668449401855469
448 1 3.3549325466156006 14.2105674743652344 28.0078830718994141
449 1 5.8971982002258301 15.3982849121093750 28.7225322723388672
450 1 5.8041868209838867 12.7048730850219727 27.6635723114013672
451 1 4.8015661239624023 13.2496500015258789 30.3248653411865234
452 1 5.9902105331420898 18.0916976928710938 29.7814922332763672
453 1 4.8945779800415039 15.9430608749389648 31.3838233947753906
454 1 7.3438320159912109 14.4373674392700195 31.0395126342773438
455 1 1.9298801422119141 12.7655744552612305 12.0140991210937500
456 1 3.2835028171539307 9.1112470626831055 13.2721214294433594
457 1 0.6692709922790527 19.1133136749267578 11.8150396347045898
458 1 40.5236396789550781 16.9646816253662109 13.4173727035522461
459 1 2.1159048080444336 18.1523990631103516 14.1320209503173828