Oriented crystal file

3997 atoms
0 bonds
0 angles
0 dihedrals
0 impropers

1 atom types

0 81.9 xlo xhi
0 81.9 ylo yhi
0 81.9 zlo zhi

Atoms

1 1 35.0652 25.5539 4.41456
2 1 35.405 26.6234 7.08388
3 1 37.4142 24.6122 7.63396
4 1 37.134 22.8773 9.93528
5 1 37.754 25.6817 10.3033
6 1 39.7632 23.6705 10.8534
7 1 37.4738 23.9468 12.6046
8 1 39.483 21.9355 13.1547
9 1 40.103 24.74 13.5227
10 1 1.16215 22.7287 14.0727
11 1 39.8228 23.005 15.824
12 1 0.881951 20.9938 16.3741
13 1 1.50192 23.7982 16.7421
14 1 3.51112 21.787 17.2921
15 1 33.7356 29.7042 9.20312
16 1 35.7448 27.6929 9.7532
17 1 35.4646 25.958 12.0545
18 1 36.0846 28.7624 12.4225
19 1 38.0938 26.7512 12.9726
20 1 35.8044 27.0275 14.7238
21 1 37.8136 25.0163 15.2739
22 1 38.4335 27.8207 15.6419
23 1 40.4427 25.8095 16.192
24 1 32.0662 32.7849 11.3224
25 1 34.0754 30.7737 11.8724
26 1 34.4151 31.8431 14.5417
27 1 36.4243 29.8319 15.0918
28 1 30.3967 35.8656 13.4416
29 1 32.4059 33.8544 13.9917
30 1 32.7457 34.9239 16.661
31 1 30.7365 36.9351 16.1109
32 1 37.3546 25.2776 2.66333
33 1 39.9838 26.0708 3.5814
34 1 39.7036 24.3359 5.88272
35 1 1.38276 25.1291 6.80079
36 1 1.10257 23.3941 9.10211
37 1 3.73174 24.1873 10.0202
38 1 3.45154 22.4524 12.3215
39 1 6.08071 23.2456 13.2396
40 1 37.6944 26.3471 5.33264
41 1 38.3144 29.1515 5.70064
42 1 40.3236 27.1403 6.25071
43 1 38.0342 27.4166 8.00196
44 1 40.0434 25.4054 8.55203
45 1 40.6633 28.2098 8.92003
46 1 1.72254 26.1986 9.47011
47 1 40.3831 26.4749 11.2213
48 1 1.44234 24.4636 11.7714
49 1 2.06231 27.2681 12.1394
50 1 4.07151 25.2568 12.6895
51 1 1.78212 25.5331 14.4407
52 1 3.79131 23.5219 14.9908
53 1 4.41128 26.3263 15.3588
54 1 6.42048 24.3151 15.9089
55 1 4.13109 24.5914 17.6601
56 1 36.025 29.4278 7.45188
57 1 36.6449 32.2323 7.81987
58 1 38.6541 30.221 8.36995
59 1 36.3647 30.4973 10.1212
60 1 38.3739 28.4861 10.6713
61 1 38.9939 31.2905 11.0393
62 1 0.0531133 29.2793 11.5893
63 1 38.7137 29.5556 13.3406
64 1 40.7229 27.5444 13.8907
65 1 0.392886 30.3488 14.2587
66 1 2.40208 28.3376 14.8087
67 1 0.112692 28.6139 16.56
68 1 2.12189 26.6026 17.1101
69 1 2.74186 29.407 17.4781
70 1 4.75106 27.3958 18.0281
71 1 34.3556 32.5086 9.57111
72 1 34.9755 35.313 9.93911
73 1 36.9847 33.3017 10.4892
74 1 34.6953 33.5781 12.2404
75 1 36.7045 31.5668 12.7905
76 1 37.3245 34.3712 13.1585
77 1 39.3337 32.36 13.7086
78 1 37.0443 32.6363 15.4598
79 1 39.0535 30.6251 16.0099
80 1 39.6735 33.4295 16.3779
81 1 0.732663 31.4183 16.928
82 1 32.6861 35.5893 11.6903
83 1 33.3061 38.3937 12.0583
84 1 35.3153 36.3825 12.6084
85 1 33.0259 36.6588 14.3597
86 1 35.0351 34.6476 14.9097
87 1 35.6551 37.452 15.2777
88 1 37.6643 35.4407 15.8278
89 1 31.0167 38.67 13.8096
90 1 33.6459 39.4632 14.7277
91 1 31.3565 39.7395 16.4789
92 1 1.66296 26.864 4.49948
93 1 4.29213 27.6572 5.41755
94 1 4.01193 25.9222 7.71887
95 1 6.6411 26.7154 8.63694
96 1 6.3609 24.9805 10.9383
97 1 8.99007 25.7737 11.8563
98 1 8.70987 24.0388 14.1577
99 1 11.339 24.832 15.0757
100 1 40.6038 28.8752 3.9494
101 1 0.27373 31.6796 4.31739
102 1 2.28293 29.6684 4.86747
103 1 40.9435 29.9447 6.61871
104 1 2.00273 27.9335 7.16879
105 1 2.6227 30.7379 7.53679
106 1 4.6319 28.7267 8.08686
107 1 2.34251 29.003 9.8381
108 1 4.3517 26.9917 10.3882
109 1 4.97167 29.7962 10.7562
110 1 6.98087 27.7849 11.3063
111 1 4.69148 28.0612 13.0575
112 1 6.70067 26.05 13.6076
113 1 7.32064 28.8544 13.9756
114 1 9.32984 26.8432 14.5257
115 1 7.04045 27.1195 16.2769
116 1 9.04964 25.1083 16.827
117 1 9.66962 27.9127 17.195
118 1 38.9343 31.9559 6.06863
119 1 39.5543 34.7603 6.43663
120 1 0.613503 32.7491 6.98671
121 1 39.2741 33.0254 8.73795
122 1 0.333308 31.0142 9.28803
123 1 0.953277 33.8186 9.65602
124 1 2.96247 31.8074 10.2061
125 1 0.673083 32.0837 11.9573
126 1 2.68228 30.0725 12.5074
127 1 3.30225 32.8769 12.8754
128 1 5.31144 30.8657 13.4255
129 1 3.02205 31.142 15.1767
130 1 5.03125 29.1307 15.7268
131 1 5.65122 31.9351 16.0948
132 1 7.66042 29.9239 16.6449
133 1 5.37102 30.2002 18.3961
134 1 37.2649 35.0367 8.18787
135 1 37.8849 37.8411 8.55587
136 1 39.8941 35.8298 9.10594
137 1 37.6047 36.1062 10.8572
138 1 39.6139 34.0949 11.4073
139 1 40.2339 36.8993 11.7753
140 1 1.29305 34.8881 12.3253
141 1 39.9537 35.1644 14.0766
142 1 1.01286 33.1532 14.6267
143 1 1.63282 35.9576 14.9947
144 1 3.64202 33.9464 15.5447
145 1 1.35263 34.2227 17.296
146 1 3.36183 32.2115 17.8461
147 1 5.99099 33.0046 18.7641
148 1 35.5955 38.1174 10.3071
149 1 38.2247 38.9106 11.2252
150 1 35.9353 39.1869 12.9764
151 1 37.9445 37.1757 13.5265
152 1 38.5644 39.9801 13.8945
153 1 40.5736 37.9688 14.4446
154 1 38.2842 38.2452 16.1958
155 1 40.2934 36.2339 16.7459
156 1 6.92129 28.4503 6.33562
157 1 8.93049 26.4391 6.8857
158 1 9.55046 29.2435 7.2537
159 1 11.5597 27.2323 7.80378
160 1 9.27026 27.5086 9.55502
161 1 11.2795 25.4974 10.1051
162 1 11.8994 28.3018 10.4731
163 1 11.6192 26.5669 12.7744
164 1 14.2484 27.3601 13.6925
165 1 2.9029 32.4728 5.23547
166 1 4.9121 30.4616 5.78555
167 1 5.53206 33.266 6.15354
168 1 7.54126 31.2548 6.70362
169 1 5.25187 31.5311 8.45486
170 1 7.26107 29.5198 9.00494
171 1 7.88103 32.3242 9.37294
172 1 9.89023 30.313 9.92301
173 1 7.60084 30.5893 11.6743
174 1 9.61004 28.5781 12.2243
175 1 10.23 31.3825 12.5923
176 1 12.2392 29.3713 13.1424
177 1 9.94981 29.6476 14.8936
178 1 11.959 27.6364 15.4437
179 1 12.579 30.4408 15.8117
180 1 14.5882 28.4295 16.3618
181 1 12.2988 28.7059 18.113
182 1 0.893699 34.484 4.68539
183 1 3.52287 35.2772 5.60346
184 1 1.23347 35.5535 7.3547
185 1 3.24267 33.5423 7.90478
186 1 3.86264 36.3467 8.27278
187 1 5.87184 34.3355 8.82286
188 1 3.58244 34.6118 10.5741
189 1 5.59164 32.6006 11.1242
190 1 6.21161 35.405 11.4922
191 1 8.22081 33.3937 12.0423
192 1 5.93142 33.6701 13.7935
193 1 7.94061 31.6588 14.3436
194 1 8.56058 34.4632 14.7116
195 1 10.5698 32.452 15.2616
196 1 8.28039 32.7283 17.0129
197 1 10.2896 30.7171 17.563
198 1 1.85344 38.3579 7.7227
199 1 40.514 38.6343 9.47394
200 1 1.57325 36.623 10.024
201 1 2.19322 39.4274 10.392
202 1 4.20241 37.4162 10.9421
203 1 1.91302 37.6925 12.6933
204 1 3.92222 35.6813 13.2434
205 1 6.55139 36.4745 14.1615
206 1 6.27119 34.7396 16.4628
207 1 0.184017 0.488672 9.84194
208 1 38.8446 0.764986 11.5932
209 1 40.8538 39.7038 12.1433
210 1 12.1796 30.0367 8.17178
211 1 14.8088 30.8299 9.08985
212 1 14.5286 29.095 11.3912
213 1 8.16123 34.0592 7.07162
214 1 10.1704 32.0479 7.6217
215 1 10.7904 34.8523 7.98969
216 1 12.7996 32.8411 8.53977
217 1 10.5102 33.1174 10.291
218 1 12.5194 31.1062 10.8411
219 1 13.1394 33.9106 11.2091
220 1 15.1486 31.8994 11.7592
221 1 12.8592 32.1757 13.5104
222 1 14.8684 30.1645 14.0605
223 1 4.14283 38.0816 5.97146
224 1 6.15203 36.0704 6.52154
225 1 6.772 38.8748 6.88953
226 1 8.7812 36.8636 7.43961
227 1 6.49181 37.1399 9.19085
228 1 8.501 35.1287 9.74093
229 1 9.12097 37.9331 10.1089
230 1 11.1302 35.9218 10.659
231 1 8.84078 36.1982 12.4102
232 1 10.85 34.1869 12.9603
233 1 4.7628 40.886 6.33946
234 1 2.47341 0.212358 8.0907
235 1 4.48261 39.1511 8.64077
236 1 7.11177 39.9443 9.55885
237 1 6.83158 38.2094 11.8602
238 1 13.4196 35.6455 8.90777
239 1 15.4288 33.6343 9.45784
240 1 16.0487 36.4387 9.82584
241 1 18.0579 34.4275 10.3759
242 1 17.7777 32.6926 12.6772
243 1 9.40117 39.668 7.80761
244 1 11.4104 37.6568 8.35769
245 1 7.39197 0.729219 7.25753
246 1 2.92896 31.8342 34.4192
247 1 0.637112 31.3694 36.1268
248 1 2.76533 33.125 37.006
249 1 2.60171 34.4158 39.5928
250 1 2.43808 35.7066 1.22965
251 1 7.34902 34.0546 33.5908
252 1 2.18396 36.2531 32.1671
253 1 4.76649 35.1538 32.879
254 1 2.47465 34.689 34.5866
255 1 5.05718 33.5898 35.2984
256 1 4.60287 36.4446 35.4658
257 1 7.1854 35.3454 36.1776
258 1 4.89355 34.8806 37.8852
259 1 7.02177 36.6362 38.7644
260 1 2.02033 37.5439 34.7539
261 1 2.31102 35.9798 37.1734
262 1 1.85671 38.8347 37.3407
263 1 4.43924 37.7354 38.0526
264 1 2.1474 37.2706 39.7602
265 1 4.72993 36.1714 40.472
266 1 4.27561 39.0262 40.6394
267 1 6.85815 37.927 0.401258
268 1 4.5663 37.4622 2.10886
269 1 4.11199 40.317 2.27621
270 1 3.94836 0.657803 4.86303
271 1 6.76765 37.1827 28.7519
272 1 7.05834 35.6187 31.1714
273 1 9.64087 34.5194 31.8832
274 1 9.18655 37.3743 32.0506
275 1 11.7691 36.2751 32.7624
276 1 9.47724 35.8102 34.47
277 1 4.4758 36.7179 30.4595
278 1 4.02149 39.5727 30.6269
279 1 6.60402 38.4735 31.3387
280 1 4.31218 38.0087 33.0463
281 1 6.89471 36.9095 33.7582
282 1 6.4404 39.7643 33.9255
283 1 9.02293 38.6651 34.6374
284 1 6.73108 38.2002 36.345
285 1 9.31362 37.101 37.0568
286 1 8.85931 39.9559 37.2242
287 1 9.14999 38.3918 39.6437
288 1 1.43896 40.672 29.915
289 1 1.72965 39.1079 32.3345
290 1 3.85786 40.8635 33.2137
291 1 1.56602 40.3987 34.9213
292 1 4.14855 39.2995 35.6331
293 1 3.69424 1.20432 35.8005
294 1 6.27677 0.105088 36.5123
295 1 3.98493 40.5903 38.2199
296 1 6.56746 39.491 38.9318
297 1 6.11315 1.39588 39.0992
298 1 6.40383 40.7818 0.568613
299 1 3.53061 2.4951 38.3873
300 1 3.8213 0.931062 40.8068
301 1 6.24021 1.12263 3.15543
302 1 8.89587 38.9383 29.6311
303 1 6.31334 40.0376 28.9193
304 1 5.85902 1.94239 29.0866
305 1 6.14971 0.378342 31.5061
306 1 3.56718 1.47757 30.7942
307 1 3.11286 4.33241 30.9616
308 1 3.40355 2.76836 33.381
309 1 5.98608 1.66914 34.0929
310 1 3.23992 4.05915 35.9678
311 1 3.62745 23.0286 33.5313
312 1 3.62745 25.0761 31.4838
313 1 3.62745 27.1236 33.5313
314 1 3.62745 25.0761 35.5788
315 1 3.62745 31.2186 33.5313
316 1 5.67495 23.0286 31.4838
317 1 7.72245 23.0286 33.5313
318 1 5.67495 23.0286 35.5788
319 1 7.72245 23.0286 37.6263
320 1 7.72245 25.0761 23.2938
321 1 5.67495 25.0761 25.3413
322 1 7.72245 27.1236 25.3413
323 1 7.72245 25.0761 27.3888
324 1 5.67495 27.1236 27.3888
325 1 5.67495 25.0761 29.4363
326 1 7.72245 27.1236 29.4363
327 1 7.72245 25.0761 31.4838
328 1 5.67495 27.1236 31.4838
329 1 5.67495 25.0761 33.5313
330 1 7.72245 27.1236 33.5313
331 1 7.72245 25.0761 35.5788
332 1 5.67495 27.1236 35.5788
333 1 5.67495 25.0761 37.6263
334 1 7.72245 31.2186 25.3413
335 1 7.72245 29.1711 27.3888
336 1 5.67495 29.1711 29.4363
337 1 7.72245 31.2186 29.4363
338 1 7.72245 29.1711 31.4838
339 1 5.67495 31.2186 31.4838
340 1 5.67495 29.1711 33.5313
341 1 7.72245 31.2186 33.5313
342 1 7.72245 29.1711 35.5788
343 1 7.72245 33.2661 27.3888
344 1 5.67495 33.2661 29.4363
345 1 7.72245 35.3136 29.4363
346 1 7.72245 33.2661 31.4838
347 1 7.72245 37.3611 27.3888
348 1 9.76995 23.0286 35.5788
349 1 11.8175 27.1236 21.2463
350 1 9.76995 27.1236 23.2938
351 1 9.76995 25.0761 25.3413
352 1 11.8175 27.1236 25.3413
353 1 11.8175 25.0761 27.3888
354 1 9.76995 27.1236 27.3888
355 1 9.76995 25.0761 29.4363
356 1 11.8175 27.1236 29.4363
357 1 11.8175 25.0761 31.4838
358 1 9.76995 27.1236 31.4838
359 1 9.76995 25.0761 33.5313
360 1 11.8175 27.1236 33.5313
361 1 11.8175 25.0761 35.5788
362 1 9.76995 27.1236 35.5788
363 1 9.76995 25.0761 37.6263
364 1 11.8175 29.1711 19.1988
365 1 9.76995 29.1711 21.2463
366 1 11.8175 31.2186 21.2463
367 1 11.8175 29.1711 23.2938
368 1 9.76995 31.2186 23.2938
369 1 9.76995 29.1711 25.3413
370 1 11.8175 31.2186 25.3413
371 1 11.8175 29.1711 27.3888
372 1 9.76995 31.2186 27.3888
373 1 9.76995 29.1711 29.4363
374 1 11.8175 31.2186 29.4363
375 1 11.8175 29.1711 31.4838
376 1 9.76995 31.2186 31.4838
377 1 9.76995 29.1711 33.5313
378 1 11.8175 31.2186 33.5313
379 1 11.8175 29.1711 35.5788
380 1 11.8175 33.2661 23.2938
381 1 9.76995 33.2661 25.3413
382 1 11.8175 35.3136 25.3413
383 1 11.8175 33.2661 27.3888
384 1 9.76995 35.3136 27.3888
385 1 9.76995 33.2661 29.4363
386 1 11.8175 35.3136 29.4363
387 1 11.8175 33.2661 31.4838
388 1 13.865 27.1236 19.1988
389 1 15.9125 27.1236 21.2463
390 1 13.865 27.1236 23.2938
391 1 15.9125 27.1236 25.3413
392 1 13.865 27.1236 27.3888
393 1 13.865 25.0761 29.4363
394 1 15.9125 27.1236 29.4363
395 1 15.9125 25.0761 31.4838
396 1 13.865 27.1236 31.4838
397 1 13.865 25.0761 33.5313
398 1 15.9125 27.1236 33.5313
399 1 15.9125 25.0761 35.5788
400 1 13.865 27.1236 35.5788
401 1 13.865 25.0761 37.6263
402 1 15.9125 27.1236 37.6263
403 1 15.9125 29.1711 19.1988
404 1 13.865 29.1711 21.2463
405 1 15.9125 31.2186 21.2463
406 1 15.9125 29.1711 23.2938
407 1 13.865 31.2186 23.2938
408 1 13.865 29.1711 25.3413
409 1 15.9125 31.2186 25.3413
410 1 15.9125 29.1711 27.3888
411 1 13.865 31.2186 27.3888
412 1 13.865 29.1711 29.4363
413 1 15.9125 31.2186 29.4363
414 1 15.9125 29.1711 31.4838
415 1 13.865 31.2186 31.4838
416 1 13.865 29.1711 33.5313
417 1 15.9125 31.2186 33.5313
418 1 15.9125 29.1711 35.5788
419 1 15.9125 33.2661 23.2938
420 1 13.865 33.2661 25.3413
421 1 15.9125 33.2661 27.3888
422 1 13.865 35.3136 27.3888
423 1 13.865 33.2661 29.4363
424 1 15.9125 33.2661 31.4838
425 1 13.865 35.3136 31.4838
426 1 17.96 27.1236 23.2938
427 1 20.0075 27.1236 25.3413
428 1 17.96 27.1236 27.3888
429 1 20.0075 27.1236 29.4363
430 1 17.96 27.1236 31.4838
431 1 17.96 25.0761 33.5313
432 1 20.0075 27.1236 33.5313
433 1 17.96 27.1236 35.5788
434 1 17.96 31.2186 19.1988
435 1 17.96 29.1711 21.2463
436 1 20.0075 29.1711 23.2938
437 1 17.96 31.2186 23.2938
438 1 17.96 29.1711 25.3413
439 1 20.0075 29.1711 27.3888
440 1 17.96 31.2186 27.3888
441 1 17.96 29.1711 29.4363
442 1 20.0075 29.1711 31.4838
443 1 17.96 31.2186 31.4838
444 1 17.96 29.1711 33.5313
445 1 20.0075 29.1711 35.5788
446 1 22.055 27.1236 27.3888
447 1 22.055 27.1236 31.4838
448 1 36.2843 20.2578 35.5941
449 1 34.9637 22.8334 35.677
450 1 36.867 22.1153 37.7377
451 1 37.5399 24.1506 35.7911
452 1 38.8605 21.575 35.7083
453 1 39.4431 23.4325 37.8518
454 1 0.486589 22.8923 35.8224
455 1 38.7954 28.0434 35.9882
456 1 40.116 25.4678 35.9053
457 1 40.6986 27.3253 38.0488
458 1 1.06923 24.7497 37.966
459 1 1.74213 26.785 36.0194
460 1 0.421528 29.3606 36.1023
461 1 35.119 16.543 31.307
462 1 36.4396 13.9674 31.2241
463 1 37.0223 15.8248 33.3677
464 1 32.4778 21.6941 31.4727
465 1 33.7984 19.1185 31.3899
466 1 34.3811 20.976 33.5334
467 1 35.7017 18.4004 33.4505
468 1 36.3746 20.4357 31.504
469 1 37.6952 17.8602 31.4211
470 1 38.2778 19.7176 33.5647
471 1 40.2713 19.1774 31.5352
472 1 31.1572 24.2697 31.5556
473 1 33.0605 23.5516 33.6163
474 1 33.7334 25.5869 31.6698
475 1 35.054 23.0113 31.5869
476 1 35.6366 24.8688 33.7304
477 1 36.9572 22.2932 33.6476
478 1 37.6301 24.3285 31.701
479 1 38.9507 21.7529 31.6181
480 1 39.5333 23.6104 33.7617
481 1 40.8539 21.0348 33.6788
482 1 0.576835 23.0702 31.7322
483 1 2.48008 22.352 33.7929
484 1 36.3095 26.9041 31.7839
485 1 36.8922 28.7616 33.9275
486 1 38.2128 26.186 33.8446
487 1 38.8856 28.2213 31.898
488 1 40.2062 25.6457 31.8151
489 1 40.7889 27.5032 33.9587
490 1 1.15948 24.9276 33.8758
491 1 1.83237 26.9629 31.9293
492 1 3.15297 24.3874 31.8464
493 1 37.565 30.7969 31.9809
494 1 39.4683 30.0788 34.0416
495 1 40.1412 32.1141 32.095
496 1 0.511773 29.5385 32.0122
497 1 1.09442 31.396 34.1557
498 1 2.41502 28.8204 34.0728
499 1 3.08791 30.8557 32.1263
500 1 0.446712 36.0069 32.2921
501 1 1.76731 33.4313 32.2092
502 1 33.2158 17.2611 29.2463
503 1 35.2093 16.7209 27.2168
504 1 36.5299 14.1453 27.1339
505 1 37.1125 16.0027 29.2775
506 1 30.5746 22.4123 29.412
507 1 31.8952 19.8367 29.3292
508 1 32.5681 21.872 27.3826
509 1 33.8887 19.2964 27.2997
510 1 34.4713 21.1539 29.4433
511 1 35.7919 18.5783 29.3604
512 1 36.4648 20.6136 27.4138
513 1 37.7854 18.0381 27.331
514 1 38.3681 19.8955 29.4745
515 1 39.6887 17.3199 29.3916
516 1 40.3615 19.3553 27.4451
517 1 29.254 24.9879 29.4949
518 1 29.9269 27.0232 27.5484
519 1 31.2475 24.4476 27.4655
520 1 31.8301 26.3051 29.6091
521 1 33.1507 23.7295 29.5262
522 1 33.8236 25.7648 27.5796
523 1 35.1442 23.1892 27.4967
524 1 35.7269 25.0467 29.6403
525 1 37.0475 22.4711 29.5574
526 1 37.7204 24.5064 27.6109
527 1 39.0409 21.9308 27.528
528 1 39.6236 23.7883 29.6716
529 1 40.9442 21.2127 29.5887
530 1 0.66708 23.248 27.6421
531 1 1.98768 20.6725 27.5592
532 1 2.57032 22.5299 29.7028
533 1 32.503 28.3404 27.6625
534 1 34.4063 27.6223 29.7232
535 1 35.0792 29.6576 27.7766
536 1 36.3998 27.082 27.6937
537 1 36.9824 28.9395 29.8373
538 1 38.303 26.3639 29.7544
539 1 38.9759 28.3992 27.8079
540 1 40.2965 25.8236 27.725
541 1 40.8791 27.6811 29.8686
542 1 1.24973 25.1055 29.7857
543 1 1.92262 27.1408 27.8391
544 1 3.24321 24.5653 27.7562
545 1 3.82586 26.4227 29.8998
546 1 33.7586 32.2332 27.8595
547 1 35.6618 31.5151 29.9202
548 1 36.3347 33.5504 27.9737
549 1 37.6553 30.9748 27.8908
550 1 38.2379 32.8323 30.0343
551 1 39.5585 30.2567 29.9515
552 1 40.2314 32.292 28.0049
553 1 0.602019 29.7164 27.922
554 1 1.18466 31.5739 30.0656
555 1 2.50526 28.9983 29.9827
556 1 3.17815 31.0336 28.0361
557 1 4.49875 28.458 27.9533
558 1 37.5902 37.4432 28.1707
559 1 38.9108 34.8676 28.0878
560 1 39.4935 36.7251 30.2314
561 1 40.8141 34.1495 30.1485
562 1 0.536956 36.1848 28.2019
563 1 1.85755 33.6092 28.119
564 1 2.4402 35.4667 30.2626
565 1 3.7608 32.8911 30.1797
566 1 40.1664 38.7604 28.2848
567 1 1.1196 38.0423 30.3455
568 1 37.2028 16.1806 25.1874
569 1 34.5616 21.3318 25.3532
570 1 35.8822 18.7562 25.2703
571 1 36.5551 20.7915 23.3237
572 1 37.8757 18.216 23.2408
573 1 38.4583 20.0734 25.3844
574 1 39.7789 17.4978 25.3015
575 1 40.4518 19.5332 23.355
576 1 31.9204 26.483 25.5189
577 1 33.241 23.9074 25.436
578 1 33.9139 25.9427 23.4895
579 1 35.2345 23.3671 23.4066
580 1 35.8171 25.2246 25.5502
581 1 37.1377 22.649 25.4673
582 1 37.8106 24.6843 23.5207
583 1 39.1312 22.1087 23.4378
584 1 39.7138 23.9662 25.5814
585 1 0.0844365 21.3906 25.4985
586 1 0.757326 23.426 23.552
587 1 2.07792 20.8504 23.4691
588 1 2.66057 22.7078 25.6127
589 1 30.5998 29.0586 25.6018
590 1 31.2727 31.0939 23.6553
591 1 32.5933 28.5183 23.5724
592 1 33.1759 30.3758 25.7159
593 1 34.4965 27.8002 25.6331
594 1 35.1694 29.8355 23.6865
595 1 36.49 27.2599 23.6036
596 1 37.0726 29.1174 25.7472
597 1 38.3932 26.5418 25.6643
598 1 39.0661 28.5771 23.7177
599 1 40.3867 26.0015 23.6349
600 1 0.019373 27.859 25.7784
601 1 1.33997 25.2834 25.6955
602 1 3.9161 26.6006 25.8097
603 1 29.9521 33.6695 23.7381
604 1 31.8553 32.9514 25.7988
605 1 32.5282 34.9867 23.8523
606 1 33.8488 32.4111 23.7694
607 1 34.4314 34.2686 25.913
608 1 35.752 31.693 25.8301
609 1 36.4249 33.7283 23.8835
610 1 37.7455 31.1527 23.8006
611 1 38.3282 33.0102 25.9442
612 1 39.6488 30.4346 25.8613
613 1 2.59551 29.1762 25.8926
614 1 35.1043 36.3039 23.9664
615 1 35.687 38.1613 26.11
616 1 37.0076 35.5858 26.0271
617 1 38.5485 20.2513 21.2943
618 1 40.542 19.7111 19.2648
619 1 35.9074 25.4025 21.46
620 1 37.228 22.8269 21.3771
621 1 37.9008 24.8622 19.4306
622 1 39.2214 22.2866 19.3477
623 1 39.8041 24.1441 21.4913
624 1 0.174682 21.5685 21.4084
625 1 31.3629 31.2718 19.5651
626 1 33.2662 30.5537 21.6258
627 1 34.5868 27.9781 21.5429
628 1 36.5802 27.4378 19.5135
629 1 37.1629 29.2953 21.6571
630 1 38.4835 26.7197 21.5742
631 1 30.0423 33.8474 19.648
632 1 30.625 35.7048 21.7916
633 1 31.9456 33.1292 21.7087
634 1 34.5217 34.4465 21.8228
635 1 35.8423 31.8709 21.7399
636 1 33.2011 37.022 21.9057
637 1 2.30492 1.80969 28.4393
638 1 5.18288 2.12866 28.4491
639 1 4.86381 5.00639 28.4863
640 1 1.98585 4.68741 28.4765
641 1 1.66677 7.56514 28.5138
642 1 9.02598 34.8183 24.2525
643 1 8.7069 37.696 24.2897
644 1 11.5849 38.015 24.2995
645 1 9.98239 39.2674 26.3605
646 1 11.2658 40.8927 24.3367
647 1 5.82894 37.377 24.28
648 1 4.22647 38.6295 26.341
649 1 7.10443 38.9485 26.3508
650 1 5.50986 40.2548 24.3172
651 1 8.38783 40.5737 24.3269
652 1 6.78536 0.876206 26.388
653 1 9.66332 1.19518 26.3978
654 1 8.06875 2.50148 24.3642
655 1 10.9467 2.82045 24.3739
656 1 9.34424 4.0729 26.435
657 1 10.6276 5.69818 24.4112
658 1 2.6319 39.9358 24.3074
659 1 1.02943 0.238252 26.3685
660 1 3.90739 0.557233 26.3782
661 1 2.31283 1.86353 24.3447
662 1 5.19079 2.1825 24.3544
663 1 3.58832 3.43496 26.4155
664 1 6.46628 3.75393 26.4252
665 1 4.87172 5.06023 24.3916
666 1 7.74968 5.3792 24.4014
667 1 6.14721 6.63166 26.4625
668 1 37.5069 1.22558 24.3252
669 1 40.3849 1.54456 24.3349
670 1 38.7824 2.79701 26.396
671 1 0.710356 3.11599 26.4057
672 1 40.0658 4.42228 24.3721
673 1 1.99376 4.74126 24.3819
674 1 0.391282 5.99371 26.4429
675 1 3.26924 6.31268 26.4527
676 1 1.67468 7.61898 24.4191
677 1 4.55264 7.93795 24.4289
678 1 37.1878 4.10331 24.3624
679 1 38.4633 5.67474 26.4332
680 1 36.8688 6.98103 24.3996
681 1 39.7467 7.30001 24.4094
682 1 38.1442 8.55246 26.4704
683 1 36.5497 9.85876 24.4368
684 1 15.1089 32.6324 20.1401
685 1 9.35296 31.9944 20.1206
686 1 12.2309 32.3134 20.1304
687 1 10.6284 33.5658 22.1914
688 1 13.5064 33.8848 22.2012
689 1 11.9118 35.1911 20.1676
690 1 14.7898 35.5101 20.1774
691 1 13.1873 36.7625 22.2384
692 1 14.4707 38.3878 20.2146
693 1 6.15592 34.5532 20.1481
694 1 9.03389 34.8721 20.1579
695 1 7.43141 36.1246 22.2189
696 1 10.3094 36.4436 22.2287
697 1 8.71481 37.7499 20.1951
698 1 11.5928 38.0688 20.2048
699 1 9.9903 39.3213 22.2659
700 1 12.8683 39.6403 22.2756
701 1 11.2737 -0.00343626 20.2421
702 1 14.1517 0.315541 20.2518
703 1 12.5492 1.568 22.3129
704 1 13.8326 3.19327 20.289
705 1 2.95888 37.1119 20.1756
706 1 5.83685 37.4309 20.1853
707 1 4.23437 38.6833 22.2464
708 1 7.11234 39.0023 22.2561
709 1 5.51777 40.3086 20.2226
710 1 8.39574 40.6276 20.2323
711 1 6.79326 0.930051 22.2934
712 1 9.67123 1.24902 22.3031
713 1 8.07666 2.55532 20.2695
714 1 10.9546 2.8743 20.2793
715 1 9.35215 4.12674 22.3403
716 1 12.2301 4.44573 22.3501
717 1 10.6355 5.75203 20.3165
718 1 13.5135 6.071 20.3263
719 1 1.35641 38.3644 22.2366
720 1 40.7118 39.6707 20.203
721 1 2.63981 39.9896 20.2128
722 1 1.03734 0.292096 22.2739
723 1 3.9153 0.611073 22.2836
724 1 2.32074 1.91737 20.25
725 1 5.1987 2.23635 20.2598
726 1 3.59623 3.4888 22.3208
727 1 6.47419 3.80777 22.3306
728 1 4.87962 5.11408 20.297
729 1 7.75759 5.43305 20.3068
730 1 6.15512 6.68551 22.3678
731 1 9.03308 7.00448 22.3776
732 1 7.43851 8.31078 20.344
733 1 37.8339 39.3517 20.1933
734 1 39.1094 40.9231 22.2641
735 1 37.5148 1.27943 20.2305
736 1 40.3928 1.5984 20.2403
737 1 38.7903 2.85085 22.3013
738 1 0.718263 3.16983 22.3111
739 1 40.0737 4.47613 20.2775
740 1 2.00166 4.7951 20.2873
741 1 0.399189 6.04755 22.3483
742 1 3.27715 6.36652 22.3581
743 1 1.68259 7.67283 20.3245
744 1 4.56055 7.9918 20.3342
745 1 34.6368 0.96045 20.2208
746 1 35.9123 2.53188 22.2916
747 1 34.3178 3.83818 20.258
748 1 37.1957 4.15716 20.2677
749 1 35.5933 5.4096 22.3288
750 1 38.4712 5.72859 22.3386
751 1 36.8767 7.03488 20.305
752 1 39.7546 7.35386 20.3147
753 1 38.1522 8.60631 22.3758
754 1 0.0801132 8.92528 22.3855
755 1 39.4356 10.2316 20.3519
756 1 33.9987 6.71591 20.2952
757 1 35.2742 8.28734 22.366
758 1 13.8334 31.0609 18.0693
759 1 16.7114 31.3799 18.0791
760 1 15.1168 32.6862 16.0455
761 1 17.9948 33.0052 16.0552
762 1 16.3923 34.2576 18.1163
763 1 17.6757 35.8829 16.0925
764 1 10.6364 33.6197 18.0968
765 1 13.5143 33.9387 18.1066
766 1 11.9198 35.245 16.073
767 1 14.7977 35.5639 16.0827
768 1 13.1952 36.8164 18.1438
769 1 16.0732 37.1354 18.1535
770 1 14.4786 38.4417 16.1199
771 1 17.3566 38.7606 16.1297
772 1 15.7541 40.0131 18.1908
773 1 17.0375 0.688355 16.1669
774 1 7.75839 33.3007 18.087
775 1 9.04179 34.926 16.0632
776 1 7.43932 36.1784 18.1243
777 1 10.3173 36.4974 18.134
778 1 8.72272 37.8037 16.1004
779 1 11.6007 38.1227 16.1102
780 1 9.99821 39.3751 18.1713
781 1 12.8762 39.6941 18.181
782 1 11.2816 0.0504082 16.1474
783 1 14.1596 0.369382 16.1572
784 1 12.5571 1.62185 18.2182
785 1 15.4351 1.94082 18.228
786 1 13.8405 3.24711 16.1944
787 1 1.68339 35.5405 18.1048
788 1 4.56136 35.8595 18.1145
789 1 2.96679 37.1658 16.0809
790 1 5.84475 37.4847 16.0907
791 1 4.24228 38.7372 18.1517
792 1 7.12025 39.0562 18.1615
793 1 5.52568 40.3625 16.1279
794 1 8.40365 40.6814 16.1377
795 1 6.80117 0.983895 18.1987
796 1 9.67913 1.30286 18.2085
797 1 8.08457 2.60917 16.1749
798 1 10.9625 2.92814 16.1846
799 1 9.36006 4.18059 18.2457
800 1 12.238 4.49957 18.2555
801 1 10.6435 5.80587 16.2219
802 1 39.4364 38.0992 18.1322
803 1 1.36432 38.4182 18.142
804 1 40.7198 39.7245 16.1084
805 1 2.64772 40.0435 16.1182
806 1 1.04525 0.34594 18.1792
807 1 3.92321 0.664922 18.189
808 1 2.32864 1.97122 16.1554
809 1 5.20661 2.29019 16.1651
810 1 3.60414 3.54265 18.2262
811 1 6.48209 3.86162 18.236
812 1 4.88753 5.16792 16.2024
813 1 7.76549 5.48689 16.2121
814 1 6.16302 6.73935 18.2732
815 1 9.04098 7.05832 18.2829
816 1 37.8418 39.4055 16.0987
817 1 36.2393 40.658 18.1597
818 1 39.1173 0.0269707 18.1695
819 1 37.5227 1.33327 16.1359
820 1 40.4007 1.65225 16.1456
821 1 38.7982 2.9047 18.2067
822 1 0.726171 3.22368 18.2164
823 1 40.0816 4.52997 16.1829
824 1 2.00957 4.84895 16.1926
825 1 0.407097 6.1014 18.2537
826 1 3.28506 6.42037 18.2634
827 1 1.69049 7.72667 16.2298
828 1 4.56846 8.04564 16.2396
829 1 2.96598 9.2981 18.3006
830 1 31.7668 0.695317 16.1164
831 1 34.6448 1.0143 16.1261
832 1 33.0423 2.26675 18.1872
833 1 35.9202 2.58573 18.1969
834 1 34.3257 3.89202 16.1634
835 1 37.2036 4.211 16.1731
836 1 35.6012 5.46345 18.2342
837 1 38.4791 5.78243 18.2439
838 1 36.8846 7.08872 16.2103
839 1 39.7625 7.4077 16.2201
840 1 38.1601 8.66015 18.2811
841 1 0.088021 8.97913 18.2909
842 1 39.4435 10.2854 16.2573
843 1 31.4477 3.57304 16.1536
844 1 32.7232 5.14448 18.2244
845 1 16.4002 34.3115 14.0217
846 1 19.2782 34.6304 14.0314
847 1 17.6836 35.9367 11.9978
848 1 20.5616 36.2557 12.0076
849 1 18.9591 37.5082 14.0686
850 1 13.5222 33.9925 14.0119
851 1 14.8056 35.6178 11.9881
852 1 13.2032 36.8702 14.0491
853 1 16.0811 37.1892 14.0589
854 1 14.4866 38.4955 12.0253
855 1 17.3645 38.8145 12.0351
856 1 15.762 40.0669 14.0961
857 1 10.3252 36.5513 14.0394
858 1 8.73063 37.8576 12.0058
859 1 11.6086 38.1765 12.0156
860 1 10.0061 39.429 14.0766
861 1 12.8841 39.748 14.0864
862 1 11.2895 0.104249 12.0528
863 1 12.565 1.67569 14.1236
864 1 4.25019 38.791 14.0571
865 1 7.12815 39.11 14.0669
866 1 5.53359 40.4163 12.0333
867 1 8.41155 40.7353 12.043
868 1 6.80908 1.03774 14.1041
869 1 9.68704 1.35671 14.1138
870 1 8.09248 2.66301 12.0803
871 1 9.36797 4.23444 14.1511
872 1 2.65562 40.0973 12.0235
873 1 1.05315 0.399785 14.0846
874 1 3.93111 0.718762 14.0943
875 1 2.33655 2.02506 12.0608
876 1 5.21451 2.34404 12.0705
877 1 3.61204 3.59649 14.1316
878 1 6.49 3.91546 14.1413
879 1 4.89544 5.22176 12.1077
880 1 6.17093 6.79319 14.1785
881 1 39.1252 0.0808113 14.0748
882 1 37.5306 1.38711 12.0412
883 1 40.4086 1.70609 12.051
884 1 38.8061 2.95854 14.1121
885 1 0.734078 3.27752 14.1218
886 1 40.0895 4.58382 12.0882
887 1 2.01748 4.90279 12.098
888 1 0.415004 6.15525 14.159
889 1 3.29297 6.47421 14.1688
890 1 33.0502 2.32059 14.0925
891 1 35.9282 2.63957 14.1023
892 1 37.2115 4.26484 12.0785
893 1 35.6091 5.51729 14.1395
894 1 38.487 5.83627 14.1493
895 1 36.8925 7.14257 12.1157
896 1 38.168 8.71399 14.1865
897 1 16.089 37.243 9.96425
898 1 10.014 39.4828 9.98197
899 1 12.892 39.8018 9.99173
900 1 6.81699 1.09158 10.0094
901 1 9.69495 1.41055 10.0192
902 1 3.93902 0.772607 9.99969
903 1 5.22242 2.39788 7.97586
904 1 3.61995 3.65033 10.0369
905 1 0.741986 3.33136 10.0272
906 1 35.6521 14.7048 2.82625
907 1 36.3755 11.9655 3.42432
908 1 34.4491 13.3498 5.08489
909 1 35.1726 10.6105 5.68296
910 1 37.083 12.7416 6.12278
911 1 37.8065 10.0023 6.72085
912 1 35.8801 11.3866 8.38143
913 1 36.6036 8.64733 8.97949
914 1 38.514 10.7784 9.41932
915 1 39.2375 8.03914 10.0174
916 1 37.3111 9.42336 11.678
917 1 39.945 8.81517 12.7159
918 1 34.9286 17.444 2.22818
919 1 35.6361 18.22 4.92665
920 1 36.3596 15.4808 5.52471
921 1 35.1567 14.1258 7.78336
922 1 37.0671 16.2568 8.22318
923 1 37.7906 13.5176 8.82125
924 1 36.5876 12.1626 11.0799
925 1 38.4981 14.2936 11.5197
926 1 39.2215 11.5544 12.1178
927 1 37.2952 12.9386 13.7784
928 1 38.0186 10.1994 14.3764
929 1 39.9291 12.3304 14.8162
930 1 36.3436 18.9961 7.62511
931 1 37.0511 19.7721 10.3236
932 1 37.7746 17.0329 10.9216
933 1 38.4821 17.8089 13.6201
934 1 39.2056 15.0697 14.2182
935 1 39.9131 15.8457 16.9166
936 1 38.0738 13.8995 37.1586
937 1 36.8709 12.5445 39.4172
938 1 39.5048 11.9363 40.4551
939 1 38.3019 10.5813 1.76375
940 1 40.9358 9.97314 2.80164
941 1 0.709284 7.2339 3.39971
942 1 39.7329 8.61812 5.06028
943 1 1.4168 8.00994 6.09817
944 1 2.14027 5.2707 6.69624
945 1 0.213889 6.65492 8.35681
946 1 2.84778 6.04673 9.39471
947 1 37.3504 16.6388 36.5605
948 1 36.1475 15.2838 38.8191
949 1 38.0579 17.4148 39.259
950 1 38.7813 14.6756 39.857
951 1 36.855 16.0598 0.567609
952 1 37.5784 13.3206 1.16568
953 1 39.4889 15.4516 1.6055
954 1 40.2123 12.7124 2.20357
955 1 38.286 14.0966 3.86414
956 1 39.0094 11.3574 4.46221
957 1 40.9198 13.4884 4.90204
958 1 0.693321 10.7492 5.5001
959 1 39.7169 12.1334 7.16068
960 1 40.4404 9.39416 7.75875
961 1 1.40083 11.5252 8.19857
962 1 2.12431 8.78597 8.79664
963 1 0.197925 10.1702 10.4572
964 1 0.921401 7.43095 11.0553
965 1 2.83182 9.562 11.4951
966 1 37.3344 20.154 38.6609
967 1 35.408 21.5383 40.3215
968 1 36.1315 18.799 40.9195
969 1 38.0419 20.9301 0.409363
970 1 38.7654 18.1908 1.00743
971 1 36.839 19.5751 2.668
972 1 37.5625 16.8358 3.26607
973 1 39.4729 18.9669 3.7059
974 1 40.1964 16.2276 4.30397
975 1 38.27 17.6119 5.96454
976 1 38.9935 14.8726 6.56261
977 1 40.9039 17.0037 7.00243
978 1 0.677357 14.2644 7.6005
979 1 39.701 15.6487 9.26107
980 1 40.4245 12.9094 9.85914
981 1 1.38487 15.0405 10.299
982 1 2.10834 12.3012 10.897
983 1 0.181962 13.6855 12.5576
984 1 0.905438 10.9462 13.1557
985 1 2.81586 13.0773 13.5955
986 1 3.53933 10.338 14.1936
987 1 1.61295 11.7223 15.8541
988 1 36.1155 22.3143 2.06993
989 1 38.0259 24.4453 2.50976
990 1 38.7494 21.7061 3.10783
991 1 36.823 23.0903 4.7684
992 1 37.5465 20.3511 5.36647
993 1 39.4569 22.4821 5.80629
994 1 40.1804 19.7429 6.40436
995 1 38.254 21.1271 8.06493
996 1 38.9775 18.3879 8.663
997 1 40.8879 20.5189 9.10283
998 1 0.661394 17.7797 9.70089
999 1 39.685 19.1639 11.3615
1000 1 40.4085 16.4247 11.9595
1001 1 1.36891 18.5557 12.3994
1002 1 2.09238 15.8165 12.9974
1003 1 0.165999 17.2007 14.658
1004 1 0.889474 14.4615 15.2561
1005 1 2.79989 16.5925 15.6959
1006 1 3.52337 13.8533 16.294