ITEM: TIMESTEP
0
ITEM: NUMBER OF ATOMS
4022
ITEM: BOX BOUNDS pp pp pp
0.0000000000000000e+00 8.1900000000000006e+01
0.0000000000000000e+00 8.1900000000000006e+01
0.0000000000000000e+00 8.1900000000000006e+01
ITEM: ATOMS id type x y z c_peratom 
222 1 0.437555 3.84005 1.77074 -2.30226 
223 1 1.28794 1.08542 2.04156 -2.11446 
224 1 3.19655 3.1203 1.26634 -2.61663 
226 1 3.35968 1.90675 3.8903 -2.80014 
225 1 4.04694 0.365668 1.53716 -1.9677 
1946 1 6.4206 0.763089 0.524108 -1.97646 
1948 1 7.32281 2.29566 2.80922 -2.94684 
2005 1 6.25268 3.65358 0.486427 -2.38701 
1949 1 9.90492 0.993405 2.66315 -2.68401 
1992 1 11.4169 1.04905 0.194274 -2.2129 
2006 1 8.83478 2.35131 0.340343 -2.60024 
2008 1 9.737 3.88389 2.62546 -3.13179 
1994 1 13.8311 2.63727 0.0105052 -2.30443 
1996 1 14.9012 1.27936 2.33331 -2.76952 
2009 1 12.3191 2.58163 2.47938 -3.09439 
1998 1 17.3154 2.86759 2.14955 -1.00024 
1041 1 23.1799 2.91066 0.90809 -2.47811 
1983 1 22.4796 0.263062 1.8574 -1.95533 
1999 1 19.8975 1.56532 2.00347 -2.63526 
2707 1 26.9318 3.76693 2.52833 -3.18328 
3540 1 24.8255 0.329916 2.6763 -1.56594 
3570 1 26.9466 1.46695 1.06614 -2.34118 
3544 1 28.6808 1.51488 3.3845 -1.28649 
3571 1 29.5369 0.176699 0.963548 -1.98552 
3573 1 30.8019 2.65192 1.77434 -2.81168 
157 1 33.961 3.24467 3.55477 -0.518801 
163 1 34.6482 1.70358 1.20163 0.684707 
3545 1 31.2711 0.224634 3.2819 -2.63703 
3574 1 33.3922 1.36167 1.67174 0.650183 
164 1 37.4072 0.983836 0.69723 -2.22728 
175 1 36.5568 3.73847 0.426409 -2.42741 
177 1 36.72 2.52492 3.05037 -3.0408 
179 1 39.4789 1.80517 2.54597 -2.41836 
204 1 40.1662 0.264086 0.192824 -1.41726 
233 1 2.34616 5.87493 0.995512 -2.5123 
234 1 1.65891 7.41601 3.34866 0.550657 
235 1 2.5093 4.66138 3.61948 -3.11341 
2014 1 4.57278 6.48842 2.91761 -1.17831 
2015 1 7.15489 5.18615 2.77154 -3.14079 
1072 1 11.1009 6.50339 1.61366 -3.05525 
1087 1 8.58554 6.4963 0.179353 -2.33596 
2007 1 11.249 3.93954 0.156581 -2.67422 
1056 1 14.6431 4.47966 1.25741 1.54014 
1071 1 13.5802 6.95102 0.186307 -2.6463 
1073 1 13.6163 6.51047 3.04797 -3.21321 
2010 1 14.7333 4.16985 2.29562 1.25803 
1057 1 17.1585 4.48675 2.69171 -0.0945481 
1058 1 16.0956 6.9581 1.62061 -3.16888 
1059 1 18.611 6.9652 3.05492 -3.33454 
1171 1 18.5749 7.40574 0.193261 -2.56747 
1046 1 19.6377 4.93438 1.26435 -2.87308 
1047 1 22.1531 4.94147 2.69866 -0.209296 
1154 1 21.0903 7.41283 1.62757 -3.19404 
1136 1 24.6324 5.3891 1.27131 1.79054 
2119 1 26.6169 5.91031 0.600465 -2.20591 
2706 1 24.4332 5.22145 2.36799 1.23263 
2718 1 25.8679 7.71891 2.66603 -3.03421 
2126 1 29.0932 7.40634 0.720194 -2.57522 
2710 1 28.3666 6.26439 2.82636 -3.18248 
2711 1 30.8652 4.80987 2.9867 -2.16746 
156 1 33.1106 5.9993 3.28395 2.03074 
484 1 34.1766 7.52447 3.29991 3.36092 
2714 1 32.2999 7.30733 3.28474 0.834615 
3584 1 31.9771 5.30119 1.34341 -1.80191 
3585 1 34.284 4.06912 0.100532 -2.33982 
174 1 35.7064 6.49311 0.155589 -2.62166 
176 1 35.8696 5.27955 2.77955 -3.03069 
178 1 38.6286 4.5598 2.27514 -2.87103 
190 1 37.7782 7.31443 2.00432 -3.07281 
232 1 40.5372 6.59468 1.49992 -1.93053 
536 1 0.166495 8.98881 3.3356 -2.11093 
1034 1 2.56414 8.07239 1.96297 -0.961341 
1036 1 0.0487497 8.0653 0.528661 -2.00881 
1119 1 1.50129 10.5437 0.891873 -2.52048 
1035 1 5.07954 8.07948 3.39728 0.581588 
1090 1 7.55882 8.52711 1.96993 -3.11014 
1106 1 5.04342 8.52002 0.535615 -2.6214 
1108 1 6.49596 10.9985 0.898828 -2.7659 
1109 1 4.01669 10.5508 2.32618 -3.18131 
1110 1 6.53209 10.5579 3.76049 -3.05308 
1089 1 10.0381 8.97475 0.542565 -2.68839 
1091 1 10.0742 8.5342 3.40423 -3.27586 
1092 1 9.01136 11.0056 2.33314 -3.19223 
1093 1 11.5268 11.0126 3.76745 -3.29546 
1213 1 11.4906 11.4532 0.905778 -2.79161 
1074 1 12.5535 8.98183 1.97688 -3.09719 
1075 1 15.0689 8.98892 3.41119 -3.27761 
1192 1 15.0328 9.42946 0.549516 -2.76103 
1195 1 14.006 11.4603 2.34009 -3.20367 
1174 1 17.5482 9.43655 1.98383 -3.19624 
1196 1 16.5214 11.4674 3.7744 -3.32672 
1155 1 22.5428 9.89128 1.99078 1.39021 
1173 1 20.0274 9.88419 0.556474 -2.91707 
1175 1 20.0635 9.44364 3.41814 -1.31219 
2717 1 23.3693 9.17343 2.50569 0.556847 
1153 1 23.5695 7.86046 0.200212 -0.585651 
2121 1 23.625 10.8683 0.530142 -2.12456 
2122 1 25.121 8.3893 0.565305 -0.510701 
2729 1 24.804 11.6709 2.80373 -1.52198 
2125 1 27.5973 9.88533 0.68503 -2.57663 
2721 1 27.3026 10.2164 2.96407 -3.02817 
2722 1 29.8013 8.76185 3.1244 -2.97075 
2993 1 30.265 10.9784 2.60652 -2.88049 
188 1 35.0192 8.03418 2.50873 0.397106 
2129 1 31.5695 8.90236 0.839922 -2.16826 
2991 1 32.9278 10.4559 1.59614 -2.4735 
189 1 36.9278 10.0691 1.7335 5.57054 
535 1 38.4581 10.1364 3.31534 -0.878682 
1038 1 37.4566 10.089 0.884923 3.69008 
2992 1 35.5906 9.93344 0.585763 0.571374 
1037 1 39.972 10.0961 2.31923 -0.849445 
27 1 2.57161 13.8627 2.65721 0.442268 
1121 1 2.95384 13.0222 1.25509 -0.202144 
3236 1 0.169825 13.9344 3.11657 -1.16649 
3246 1 0.987429 13.6974 0.348932 -1.8803 
1111 1 5.46923 13.0293 2.68939 -3.18835 
1216 1 10.4639 13.484 2.69635 -3.15949 
1232 1 7.94851 13.4769 1.26204 -2.82821 
1197 1 15.4586 13.9387 2.7033 -3.22637 
1215 1 12.9432 13.9316 1.269 -2.9112 
1176 1 19.0007 11.915 2.34705 -3.13973 
1194 1 16.4853 11.9079 0.912736 -2.78932 
1288 1 17.9378 14.3864 1.27595 -2.9565 
1270 1 21.48 12.3626 0.919686 1.49256 
1272 1 20.4532 14.3934 2.71026 -0.180044 
2131 1 22.1291 13.3473 0.494978 2.57658 
2728 1 22.3054 13.1254 2.6434 -1.38594 
3013 1 21.184 15.0784 1.44875 -0.0559808 
2134 1 26.1013 12.3643 0.64987 -0.0787354 
3002 1 23.8468 14.5559 0.438371 -2.25569 
3004 1 25.7245 13.0284 2.02763 1.02123 
3005 1 28.3873 12.5059 1.01725 -2.6433 
3006 1 27.6467 15.1849 1.82918 -3.15484 
3007 1 30.3095 14.6624 0.818807 -2.74327 
3008 1 29.5243 13.6574 3.41844 -3.04987 
3001 1 34.85 12.6124 1.39769 -2.1489 
3009 1 32.1872 13.1349 2.40807 -3.09812 
3011 1 34.1094 15.2913 2.20961 -2.94724 
3232 1 36.6939 11.8638 1.98644 -0.169677 
3233 1 37.2799 14.6986 1.91675 -2.91244 
3234 1 39.3157 12.7806 1.16768 -2.55165 
28 1 0.545786 15.8462 3.24564 -1.53391 
29 1 1.17451 18.6647 3.03373 -2.93656 
30 1 3.20034 16.6812 2.4453 -3.13111 
81 1 3.82905 19.4998 2.23339 -3.09904 
3247 1 1.57337 16.5322 0.27923 -2.20285 
3279 1 2.15932 19.3671 0.20954 -2.38161 
34 1 6.99746 15.9349 3.78465 -3.21677 
82 1 5.85488 17.5163 1.64496 -2.80819 
85 1 7.62618 18.7535 3.57274 -3.29583 
1233 1 6.88565 15.9483 0.190942 -2.09129 
84 1 8.50943 18.3514 0.844619 -2.88453 
86 1 9.65201 16.77 2.98431 -0.57534 
1234 1 9.40105 15.9554 1.62525 -0.498375 
1218 1 11.9165 15.9625 3.05956 -2.97528 
1305 1 11.8803 16.403 0.1979 -2.42377 
1306 1 14.3957 16.4101 1.63221 -2.99055 
1535 1 12.597 18.8671 1.36015 -2.83746 
1289 1 16.875 16.8577 0.20485 -2.43169 
1290 1 16.9111 16.4172 3.06651 -2.75017 
3043 1 18.5657 19.2848 0.671414 0.845669 
3014 1 22.321 16.2299 3.84993 -1.27973 
3045 1 20.4433 17.7573 2.26067 -3.16642 
3046 1 23.1062 17.2348 1.25029 -3.0603 
3015 1 24.9838 15.7074 2.83956 -3.37223 
3034 1 25.769 16.7123 0.239923 -2.74291 
3048 1 25.0284 19.3913 1.05185 -2.9872 
3049 1 24.2432 18.3863 3.65148 -3.34022 
3050 1 26.906 17.8638 2.64111 -3.22304 
3036 1 27.6912 18.8688 0.0414706 -2.54317 
3038 1 29.5689 17.3413 1.63073 -3.05664 
3010 1 31.4465 15.8138 3.21999 -3.15441 
3039 1 32.2317 16.8188 0.620355 -2.61385 
3040 1 31.4911 19.4977 1.43228 -2.98718 
3041 1 34.1539 18.9752 0.421899 -2.38381 
3042 1 33.3687 17.9703 3.02154 -3.14784 
3249 1 35.83 19.4515 2.59611 -1.50551 
3250 1 37.8658 17.5335 1.84704 -2.90159 
3239 1 39.084 15.8525 3.86563 -2.96043 
3245 1 39.9016 15.6154 1.09799 -2.18901 
3252 1 40.4876 18.4503 1.02829 -1.97048 
3253 1 39.67 18.6873 3.79594 -2.96935 
91 1 1.80323 21.4833 2.82182 -2.95201 
3278 1 0.123515 21.2851 0.958597 -2.074 
3280 1 2.74527 22.2019 0.139841 -2.5711 
83 1 6.4836 20.3349 1.43305 -3.05855 
93 1 4.45778 22.3184 2.02148 -3.09777 
134 1 7.11233 23.1534 1.22114 -3.05547 
87 1 10.2807 19.5886 2.7724 -2.99587 
97 1 8.25491 21.5721 3.36083 -3.28726 
132 1 9.13816 21.1699 0.632709 -2.7347 
137 1 10.9095 22.4071 2.56049 0.497469 
1534 1 11.4879 21.4684 1.98297 0.917696 
1538 1 15.2404 19.8301 2.04555 -3.0286 
1545 1 14.1313 22.4313 2.66837 -3.13563 
1539 1 17.4055 19.5986 0.136887 1.0461 
1547 1 16.2964 22.1998 0.759705 -2.8195 
1548 1 16.7746 23.3943 3.35376 -3.28531 
1549 1 17.8837 20.793 2.73095 -1.7255 
1550 1 18.9398 23.1628 1.4451 -3.00117 
3047 1 22.3655 19.9138 2.06222 -3.12925 
3055 1 19.7027 20.4363 3.0726 -1.78549 
3094 1 20.4879 21.4412 0.472959 -2.66133 
3104 1 21.6249 22.5927 2.87415 -3.26166 
3051 1 26.1654 20.5428 3.45303 -3.35555 
3098 1 24.2878 22.0702 1.86377 -3.15448 
3099 1 26.9506 21.5477 0.853395 -2.89258 
3052 1 28.8282 20.0202 2.44265 -3.18577 
3102 1 28.0876 22.6992 3.25458 -1.71947 
3103 1 30.7505 22.1767 2.2442 -2.72916 
3091 1 33.4133 21.6542 1.23383 -2.65069 
3433 1 34.9196 22.5484 2.74607 -0.268257 
3251 1 38.4517 20.3683 1.77735 -2.89031 
3254 1 36.4159 22.2864 2.52641 -0.487034 
3257 1 40.2559 21.5222 3.72624 -2.78755 
3286 1 39.0377 23.2032 1.70765 -2.83794 
92 1 2.43195 24.3019 2.60991 -2.90804 
139 1 3.06067 27.1204 2.398 -2.82151 
3288 1 0.70946 24.12 0.888899 -2.23168 
3331 1 1.29541 26.9548 0.819204 -1.99877 
3332 1 3.33122 25.0367 0.0701467 -2.43708 
133 1 5.0865 25.1369 1.80957 -3.05339 
135 1 7.74105 25.972 1.00923 1.59734 
143 1 6.8578 26.3741 3.73735 -3.35616 
136 1 8.88362 24.3906 3.14892 -3.34839 
145 1 9.51235 27.2092 2.93701 -2.70648 
1541 1 8.79149 25.4765 0.634537 1.15033 
1542 1 11.4349 26.4394 1.31993 -2.91511 
1543 1 12.544 23.8381 0.697121 -2.67615 
1544 1 13.0222 25.0326 3.29118 -1.76709 
1546 1 15.1873 24.8011 1.38252 -3.02697 
1559 1 17.8307 25.764 2.06792 -3.11703 
1606 1 16.2434 27.1709 0.0966722 -2.52687 
1610 1 19.9959 25.5325 0.159256 -1.67734 
3096 1 22.4101 23.5977 0.27451 -2.73116 
3105 1 20.8843 25.2717 3.68607 -1.22141 
3151 1 21.6695 26.2766 1.08643 -1.98825 
3100 1 26.21 24.2267 1.66532 -3.06762 
3106 1 23.5471 24.7492 2.67569 -3.17762 
3145 1 24.3323 25.7541 0.0760585 -2.48984 
3154 1 25.4693 26.9056 2.47725 -2.98473 
3101 1 28.8728 23.7042 0.654943 -2.78475 
3149 1 28.1322 26.3831 1.46687 -0.417035 
3150 1 30.795 25.8606 0.456491 0.558211 
3437 1 29.7392 25.1289 2.95126 -3.13286 
3438 1 32.3294 23.8387 2.84867 -3.08544 
3441 1 33.5945 26.3139 3.65946 -3.41393 
3495 1 31.8603 26.266 1.3411 -0.0228618 
3496 1 34.4505 24.9757 1.23851 0.0939232 
3282 1 35.1977 23.9674 0.507822 0.274236 
3283 1 35.7837 26.8022 0.438124 -0.732044 
3285 1 37.0019 25.1212 2.45671 -0.0106887 
3442 1 36.1847 25.0237 3.55686 -0.106762 
3287 1 39.6236 26.038 1.63796 -2.71477 
3289 1 40.8419 24.357 3.65655 -2.69352 
140 1 3.68939 29.939 2.18609 -2.61477 
3340 1 1.88136 29.7896 0.749506 -1.73738 
141 1 5.71522 27.9555 1.59766 -1.98105 
144 1 7.48651 29.1927 3.52544 -2.94733 
1540 1 7.68241 28.0777 1.25735 -1.03146 
1552 1 10.3258 29.0407 1.94275 -2.73926 
1554 1 12.9692 30.0036 2.62815 -3.24658 
1555 1 14.0783 27.4023 2.00533 -3.16395 
1605 1 15.1343 29.7721 0.71949 -2.74873 
1558 1 16.7216 28.3653 2.69073 -3.2285 
1564 1 15.6126 30.9665 3.31355 -3.39195 
1567 1 19.365 29.3282 3.37613 -2.92002 
1609 1 18.8868 28.1338 0.78207 -2.74669 
1616 1 17.7777 30.7351 1.40489 -3.0011 
3153 1 22.8065 27.4281 3.48762 -2.9891 
3197 1 22.851 31.112 1.69991 -2.62212 
3152 1 23.5917 28.4331 0.887982 -2.57089 
3198 1 25.5139 30.5895 0.689534 -2.36088 
3448 1 28.4141 28.8944 3.86465 -3.21376 
3449 1 31.0043 27.6042 3.76205 -3.27059 
3499 1 29.2701 27.5562 1.4437 -0.391567 
3501 1 30.5352 30.0315 2.25449 -3.1568 
3502 1 33.1254 28.7412 2.1519 -3.24941 
3503 1 32.6563 31.1685 0.644335 -2.7511 
3290 1 37.5878 27.956 2.38701 -0.54397 
3335 1 36.3696 29.637 0.368426 1.27445 
3337 1 38.1738 30.7909 2.31732 0.174444 
3498 1 35.7156 27.4509 2.0493 -0.103666 
3504 1 35.2465 29.8782 0.54174 1.15099 
3506 1 36.9807 29.9262 2.8601 -0.0651927 
3338 1 40.2096 28.8728 1.56826 -2.53875 
162 1 1.08011 34.4913 3.35843 -2.89518 
197 1 1.76737 32.9502 1.00529 -2.4761 
198 1 3.67597 34.9851 0.230059 -2.50455 
200 1 3.83911 33.7715 2.85402 -2.0963 
199 1 4.52636 32.2304 0.50088 -2.42117 
201 1 6.5981 33.0518 2.34962 -3.12831 
255 1 8.50671 35.0867 1.5744 0.0602941 
1551 1 9.2167 31.6419 2.56557 -1.20041 
1601 1 11.3819 31.4104 0.656906 -2.67493 
1909 1 9.33855 34.6299 0.453418 0.284894 
1910 1 10.4087 33.272 2.77622 1.5444 
1562 1 11.8601 32.6049 3.25097 -0.235133 
1612 1 14.0253 32.3734 1.3423 -2.93657 
1911 1 12.8229 34.8602 2.59246 -3.16669 
1615 1 16.6686 33.3363 2.0277 -3.15747 
1617 1 18.8338 33.1048 0.119042 -2.48367 
1621 1 19.312 34.2993 2.7131 -3.19851 
1619 1 20.4211 31.698 2.09029 -2.94781 
1623 1 21.4772 34.0678 0.804436 -2.18352 
3523 1 22.7645 33.9022 2.56228 -0.768792 
3509 1 25.3547 32.612 2.45968 -3.13374 
3524 1 24.8856 35.0392 0.95212 -2.74274 
3526 1 26.6198 35.0872 3.27047 -3.25859 
3510 1 27.9449 31.3217 2.35709 -3.11133 
3511 1 27.4758 33.749 0.849525 -2.76721 
3512 1 30.066 32.4587 0.746931 -2.71975 
3513 1 29.21 33.7969 3.16788 -3.26537 
3505 1 34.3905 31.2164 2.96269 -3.3175 
3514 1 31.8002 32.5067 3.06528 -3.25383 
3515 1 31.3311 34.934 1.55772 -3.06123 
3516 1 33.9213 33.6437 1.45513 -2.99891 
3517 1 33.0653 34.9819 3.87608 -3.29867 
3341 1 38.7597 33.6257 2.24762 1.1053 
3507 1 36.5116 32.3534 1.35253 -3.00591 
3508 1 38.2458 32.4014 3.67089 0.149706 
3518 1 35.6555 33.6916 3.77348 -3.3968 
3520 1 37.7766 34.8287 2.16332 0.177438 
3339 1 40.7955 31.7077 1.49856 -2.28583 
169 1 0.229723 37.2459 3.08761 -2.59833 
196 1 0.916978 35.7048 0.734465 -2.40065 
205 1 0.0665904 38.4595 0.463644 -1.67857 
209 1 2.98872 36.5261 2.5832 -3.13911 
210 1 4.89733 38.561 1.80798 -2.87021 
211 1 5.74771 35.8064 2.0788 -3.22993 
254 1 7.65632 37.8413 1.30357 -1.21544 
1913 1 10.2408 36.1624 2.73853 -3.0944 
1933 1 9.17063 37.5203 0.415725 -1.04909 
1926 1 11.7527 36.2181 0.269653 -2.81192 
1927 1 14.1669 37.8063 0.0858913 -2.49195 
1928 1 15.2371 36.4484 2.40869 -3.18133 
1937 1 12.655 37.7507 2.55477 -3.22628 
1620 1 17.7247 35.7061 0.741856 -2.60501 
1929 1 17.6512 38.0366 2.22493 -2.87012 
1622 1 20.3681 36.669 1.42725 -2.72364 
1624 1 21.9554 35.2622 3.3985 -1.15911 
3525 1 24.0296 36.3774 3.37307 -2.92703 
3527 1 26.1507 37.5144 1.76291 -3.01004 
3538 1 23.5605 38.8047 1.86551 -2.45045 
3528 1 28.7409 36.2242 1.66032 -3.11134 
3531 1 30.006 38.6994 2.47111 -3.04215 
3563 1 28.2718 38.6515 0.152755 -2.4454 
3564 1 30.862 37.3612 0.0501601 -2.47836 
3532 1 32.5962 37.4092 2.36852 -3.10654 
3567 1 34.7173 38.5462 0.758359 -2.43199 
167 1 38.4207 37.9656 3.59201 -2.352 
3519 1 35.1864 36.1189 2.26592 -3.17504 
3536 1 36.4515 38.5941 3.07671 -2.24964 
160 1 39.108 36.4246 1.23887 -2.14762 
161 1 39.2711 35.211 3.86283 3.11668 
208 1 2.13833 39.2808 2.31238 -2.59309 
228 1 6.96907 39.3824 3.65671 0.557693 
1947 1 7.49073 40.3552 2.84691 0.6205 
1934 1 9.00271 40.4108 0.378036 -2.23127 
1935 1 11.5848 39.1086 0.231964 -2.76824 
1936 1 10.0728 39.0529 2.70084 -3.16565 
1938 1 12.487 40.6411 2.51707 -2.71492 
1939 1 15.0691 39.3389 2.371 -2.95071 
1993 1 13.999 40.6968 0.0482021 -1.9483 
1982 1 20.0654 39.6248 2.04116 -2.17231 
3568 1 25.6816 39.9417 0.25535 -1.91078 
3541 1 27.4158 39.9897 2.5737 -2.63838 
3535 1 33.8613 39.8844 3.17931 -2.75819 
3566 1 32.1271 39.8364 0.860953 -2.24002 
165 1 38.2576 39.1792 0.96805 -2.27619 
166 1 37.5703 40.7203 3.32119 -2.31302 
168 1 40.3293 40.0005 2.81679 -1.97245 
1997 1 17.4833 81.8771 2.18724 -2.05333 
182 1 0.600688 2.62649 4.3947 -2.42368 
184 1 0.76382 1.41294 7.01866 1.81418 
186 1 3.52281 0.69319 6.51426 -2.26211 
406 1 1.69361 1.6447 7.71653 1.57585 
236 1 5.43142 2.72807 5.73903 -2.83563 
1919 1 6.88097 0.882115 7.6009 -1.28412 
453 1 8.63346 3.10904 7.75222 1.4126 
1950 1 8.39295 0.937764 5.13203 -2.74367 
1952 1 10.8071 2.52598 4.94826 -3.13887 
1959 1 8.22502 3.82824 5.09434 -3.22215 
1960 1 9.29515 2.47034 7.41714 1.54733 
1953 1 13.3892 1.22372 4.80218 -2.77619 
1954 1 11.8773 1.16807 7.27106 -2.80174 
1956 1 14.2915 2.75629 7.0873 -2.70783 
1945 1 19.4557 0.151768 6.79515 -2.07131 
1957 1 16.8736 1.45403 6.94122 -2.56236 
2000 1 18.3855 1.50968 4.47235 -3.04987 
2012 1 15.8034 2.81194 4.61842 -3.23941 
2627 1 17.9223 3.28001 7.78083 -2.87945 
2001 1 20.9676 0.207417 4.32628 -2.46744 
2630 1 22.5912 2.47264 6.13689 -3.28964 
2702 1 23.3268 0.62233 4.03457 -1.53477 
2621 1 25.0898 1.01812 6.29722 -2.18735 
2634 1 26.5246 3.51558 6.59526 -3.33402 
2703 1 27.2602 1.66527 4.49294 1.28778 
2705 1 24.7615 3.11979 4.33261 -3.31795 
3542 1 26.5597 0.377856 4.99466 0.807451 
2624 1 29.0232 2.06106 6.7556 -1.41197 
3546 1 30.415 1.56282 5.70285 -1.29982 
2626 1 32.9565 3.104 7.21397 -3.15451 
3547 1 33.0053 0.27257 5.60026 -2.62034 
3548 1 32.5361 2.69985 4.0927 -0.848851 
158 1 36.8831 1.31136 5.67433 -2.37363 
180 1 38.7917 3.34624 4.8991 -2.82573 
389 1 35.7038 0.180362 7.68085 2.08705 
420 1 35.1947 2.6284 6.22054 -2.60752 
181 1 39.6421 0.591609 5.16992 -2.02419 
405 1 39.9852 2.79233 7.69628 -2.74054 
464 1 0.675533 6.54077 4.79591 -1.66735 
466 1 1.18457 4.09274 6.25622 -2.82203 
467 1 0.658287 6.55194 7.69144 -2.96506 
468 1 3.31668 5.40431 7.7117 -3.27927 
452 1 5.97507 4.25667 7.73196 -3.15873 
524 1 5.46603 6.70471 6.27165 -1.87267 
1958 1 5.64291 5.13051 5.24041 -1.59933 
526 1 10.2565 6.86865 7.74739 -3.41337 
2016 1 8.0571 6.71873 5.05665 -0.340962 
2017 1 10.6392 5.41647 4.91057 -3.20492 
521 1 12.9149 5.72101 7.76765 0.532837 
1961 1 11.7093 4.05856 7.23338 -2.13101 
2011 1 13.2213 4.1142 4.7645 -3.28637 
2018 1 14.1235 5.64678 7.04961 2.00487 
2643 1 15.4236 4.73453 7.6205 -0.831707 
1060 1 16.1317 6.51756 4.48229 -2.98724 
2013 1 18.2176 4.40017 4.43466 2.29035 
2644 1 17.5939 5.38168 5.81622 -1.2967 
1048 1 19.6739 4.49384 4.12602 0.731395 
2629 1 20.0926 3.92716 5.97655 -2.12196 
2648 1 21.5273 6.42462 6.27459 -3.40862 
2704 1 22.2629 4.57431 4.17227 -0.509909 
2633 1 24.0259 4.9701 6.43493 -3.35852 
2652 1 25.4606 7.46755 6.73296 -3.35134 
2708 1 26.1962 5.61724 4.63064 -3.34542 
2716 1 23.6976 7.07176 4.47031 -3.40943 
2637 1 27.9593 6.01303 6.8933 -3.34515 
2638 1 30.4579 4.55852 7.05363 -3.34385 
2709 1 28.6949 4.16272 4.79098 -3.35005 
2712 1 30.1296 6.66018 5.08902 -3.37388 
419 1 34.6857 5.07644 4.76023 -1.83442 
421 1 34.6684 5.0876 7.65576 -3.35231 
486 1 34.1594 7.53564 6.19544 -3.29975 
2641 1 31.8926 7.05597 7.35167 -3.32614 
2713 1 32.6282 5.20566 5.24935 -2.0873 
422 1 37.3268 3.93997 7.67602 -3.2876 
463 1 38.9671 7.68841 4.77565 -3.07294 
487 1 36.8178 6.38801 6.2157 -3.37401 
489 1 38.9499 7.69958 7.67118 -3.04988 
191 1 40.7003 5.38113 4.12388 -2.20638 
465 1 39.4762 5.24037 6.23596 -2.60694 
538 1 2.2986 10.3004 4.79108 -3.11285 
539 1 0.14925 8.99998 6.23113 -2.6967 
540 1 2.80764 7.85234 6.25139 -3.3156 
541 1 2.28136 10.3115 7.68661 -3.19463 
523 1 4.95699 9.15275 4.81134 -1.29923 
525 1 7.59814 8.01628 7.72713 -3.3809 
542 1 4.93975 9.16391 7.70687 -3.37878 
587 1 7.0891 10.4643 6.26682 -2.90133 
596 1 4.43071 11.612 6.24656 -3.30486 
1033 1 7.59494 8.08656 4.83159 -0.346395 
588 1 9.74749 9.31668 6.28708 -1.14171 
1094 1 9.04748 10.565 5.1948 -1.15894 
1095 1 11.5629 10.5721 6.62911 1.11265 
590 1 11.8796 10.6283 7.74255 0.808447 
1076 1 12.5896 8.54129 4.83854 -3.28274 
1077 1 14.0422 11.0197 5.20175 -3.33848 
2663 1 14.3597 8.68651 7.7582 -3.32216 
1061 1 17.5843 8.99601 4.8455 -0.297869 
2647 1 19.0286 7.87914 6.11426 -2.89776 
2664 1 16.53 9.33366 5.95392 -0.812522 
2651 1 22.962 8.92208 6.57263 -3.36387 
2668 1 20.4634 10.3766 6.41229 -3.36542 
2715 1 21.199 8.52628 4.30997 -1.34176 
2727 1 22.6337 11.0237 4.60801 -3.42485 
2655 1 26.8953 9.96501 7.031 -3.34255 
2672 1 24.3967 11.4195 6.87067 -3.35431 
2719 1 25.1323 9.56922 4.76835 -3.39839 
2656 1 29.394 8.51049 7.19134 -3.3509 
2659 1 30.8287 11.008 7.48937 -3.3707 
2720 1 27.6309 8.1147 4.92868 -3.36436 
2723 1 29.0657 10.6122 5.22672 -3.32618 
2660 1 33.3273 9.55343 7.64971 -3.30691 
2724 1 31.5643 9.15764 5.38706 -3.38091 
2725 1 32.999 11.6551 5.68509 -2.15411 
2994 1 34.0648 11.6074 3.99732 -1.31208 
485 1 36.3088 8.83604 4.75539 -3.44055 
488 1 36.2915 8.84721 7.65092 -3.35797 
555 1 35.7825 11.2952 6.19061 1.67211 
556 1 38.4409 10.1476 6.21087 -3.20514 
537 1 40.5902 11.448 4.77082 -2.50365 
558 1 40.573 11.4592 7.66635 -2.62991 
4 1 1.68836 14.2648 5.38534 -0.886638 
6 1 3.45966 15.502 7.31312 -3.22921 
595 1 1.77232 12.7596 6.2263 -0.824634 
1122 1 2.98996 12.5816 4.11675 -1.68682 
32 1 4.34291 15.0999 4.585 -3.26536 
597 1 6.56282 12.9235 7.70203 -2.78801 
36 1 8.14004 14.3536 5.92435 -2.83752 
589 1 9.22121 11.7759 7.72229 -3.34103 
1096 1 10.5 13.0435 5.55802 -3.34922 
1112 1 7.98463 13.0364 4.1237 -2.86667 
1097 1 13.0154 13.0505 6.99233 1.12604 
1199 1 15.4947 13.4982 5.56497 2.69234 
1217 1 12.9793 13.4911 4.13066 -3.32731 
2684 1 15.4661 13.2856 6.09162 2.70872 
1198 1 17.974 13.9458 4.13761 -3.31425 
2667 1 17.9647 11.8311 6.25196 -3.40251 
2688 1 19.3994 14.3286 6.54999 -3.39884 
2671 1 21.8981 12.8741 6.71033 -3.38492 
2692 1 23.3328 15.3715 7.00837 -2.78682 
2726 1 20.135 12.4783 4.44768 -3.21872 
2734 1 21.5697 14.9757 4.74571 -1.11486 
2675 1 25.8314 13.917 7.1687 -3.3728 
2730 1 24.0684 13.5212 4.90605 -3.41904 
2731 1 26.567 12.0667 5.06638 -2.94441 
3016 1 26.8615 14.1799 4.42882 -2.91266 
2676 1 28.33 12.4625 7.32904 -3.31658 
2679 1 29.7648 14.9599 7.62708 -2.38224 
2732 1 30.5004 13.1096 5.52476 -1.03104 
3019 1 30.6614 14.8089 5.81963 -0.273137 
2680 1 32.2634 13.5054 7.78741 -3.3395 
3012 1 33.3242 14.2864 4.80925 -3.23908 
3378 1 35.0619 12.7914 6.45797 2.18567 
1 1 37.958 15.4132 6.77411 -2.94978 
557 1 37.9146 12.6068 7.64609 -3.09561 
3230 1 35.8763 12.1008 4.75409 0.922432 
3235 1 38.4981 13.0176 3.93533 -3.1597 
3237 1 36.4623 14.9357 4.68439 -3.22572 
2 1 39.9838 13.4297 6.18568 -2.71331 
31 1 2.31708 17.0834 5.17343 -3.22126 
41 1 0.291255 19.0669 5.76186 -2.59765 
33 1 4.97163 17.9184 4.37309 -3.27611 
35 1 6.11421 16.3371 6.51278 -3.26869 
45 1 4.08838 18.3206 7.10121 -3.30725 
47 1 6.74293 19.1556 6.30087 -3.35134 
37 1 8.76876 17.1721 5.71244 -3.35435 
51 1 10.5401 18.4093 7.64023 -3.41009 
88 1 11.4233 18.0072 4.9121 -3.26955 
39 1 12.5659 16.4258 7.0518 -3.39827 
89 1 14.0779 18.8422 4.11176 -3.14415 
90 1 15.2204 17.2609 6.25145 -2.60697 
103 1 13.1946 19.2444 6.83988 -3.39537 
1219 1 14.4318 15.9695 4.49387 -3.03478 
667 1 18.0657 18.815 7.14663 2.16538 
1528 1 16.8277 18.4232 4.01679 -2.7648 
2687 1 16.9008 15.7831 6.38966 -2.97171 
2700 1 18.3355 18.2805 6.6877 2.06567 
2733 1 19.0711 16.4302 4.58538 -3.30692 
2691 1 20.8341 16.826 6.84803 -3.30382 
3056 1 21.5804 18.9088 4.66186 -3.37416 
2695 1 24.7675 17.869 7.3064 -0.800425 
2696 1 27.2661 16.4145 7.46674 -0.840763 
3017 1 26.1209 16.8589 5.24075 -3.24454 
3020 1 23.4581 17.3814 6.25112 -0.831098 
3021 1 27.2579 18.0103 7.64193 2.02491 
3018 1 28.7837 16.3364 4.23037 -3.2931 
3053 1 28.0431 19.0153 5.04229 -3.28837 
3054 1 30.7059 18.4928 4.03191 -3.18849 
3381 1 28.5563 19.1374 7.57654 -1.25492 
3382 1 31.1466 17.8471 7.47395 -3.32559 
3379 1 33.7368 16.5569 7.37135 -2.74584 
3384 1 33.2677 18.9841 5.86379 -3.26609 
8 1 38.5867 18.2318 6.5622 -3.07819 
3238 1 37.0482 17.7705 4.61469 -0.858231 
3380 1 35.8579 17.6939 5.7612 -0.932854 
3 1 40.6125 16.2483 5.97377 -2.55608 
42 1 0.919974 21.8854 5.54994 -2.91586 
43 1 2.9458 19.9019 4.96151 -3.26006 
44 1 2.06255 20.3041 7.68964 -3.19676 
61 1 2.69127 23.1226 7.47773 -3.24257 
94 1 3.57452 22.7205 4.7496 -3.29584 
46 1 4.7171 21.1391 6.8893 -3.35134 
95 1 5.60035 20.737 4.16117 -3.32606 
98 1 7.37165 21.9742 6.08896 -3.35135 
99 1 9.39748 19.9907 5.50053 -3.35557 
100 1 10.0262 22.8093 5.28862 -3.33866 
102 1 11.1688 21.2279 7.42831 -3.31255 
101 1 12.052 20.8258 4.70019 -3.28604 
104 1 13.8233 22.0629 6.62797 -2.81279 
666 1 17.8144 21.3158 5.70877 -3.04133 
1530 1 15.7186 21.0245 4.63961 -2.99895 
3057 1 20.8398 21.5878 5.47379 -3.29426 
3059 1 22.7174 20.0603 7.06304 -2.84921 
3058 1 23.5026 21.0653 4.46341 -3.31492 
3060 1 25.3803 19.5378 6.05267 -1.56274 
3061 1 24.6396 22.2168 6.86459 0.536796 
3108 1 25.4248 23.2217 4.26496 -1.8192 
3388 1 25.9661 20.4276 7.67914 -1.93438 
3389 1 25.497 22.8549 6.17158 1.55803 
3383 1 30.6774 20.2744 5.96639 -3.2714 
3390 1 28.0872 21.5646 6.06898 -3.3713 
3436 1 30.2083 22.7017 4.45882 -2.93984 
3387 1 34.5327 21.4594 6.67458 -3.37452 
3394 1 31.9425 22.7496 6.77718 -3.32814 
3431 1 32.7985 21.4114 4.35623 -3.3184 
3255 1 37.6342 20.6054 4.54499 -2.44596 
3432 1 35.3888 20.1212 4.25363 -1.38689 
3434 1 36.6538 22.5964 5.06443 -1.4814 
40 1 39.2154 21.0504 6.35029 -2.87953 
106 1 1.5487 24.704 5.33803 -2.98103 
109 1 3.32 25.9412 7.26582 -3.29964 
96 1 6.22907 23.5556 3.94926 -3.34596 
108 1 4.20325 25.5391 4.53769 -3.3016 
110 1 5.34583 23.9577 6.67739 -3.35443 
111 1 5.97454 26.7763 6.46548 -3.37871 
112 1 8.00037 24.7928 5.87705 -3.40263 
147 1 10.6549 25.6278 5.07671 -3.34022 
116 1 11.7975 24.0464 7.2164 -3.28589 
138 1 12.6808 23.6443 4.48828 -0.928408 
1529 1 14.6095 23.6257 5.26242 -1.79858 
669 1 16.3231 23.5097 6.86943 -3.04063 
715 1 18.9546 26.1746 5.21341 1.31499 
717 1 19.2058 23.6739 6.65127 -3.24004 
1557 1 15.6656 25.9955 3.97658 -3.30844 
1560 1 18.3089 26.9585 4.66198 0.926366 
1561 1 19.418 24.3572 4.03916 -0.894392 
718 1 20.5971 26.0319 7.59378 -3.24896 
3107 1 22.762 23.7442 5.27533 -3.21985 
3401 1 24.1719 26.6204 7.08496 -3.1541 
3402 1 26.7621 25.3301 6.98237 -3.30083 
3393 1 29.3523 24.0399 6.87977 -3.36982 
3406 1 30.6174 26.5151 7.69057 -3.33134 
3435 1 27.6181 23.9919 4.56142 -1.70097 
3447 1 28.8832 26.4671 5.37221 -3.34698 
3397 1 33.2076 25.2248 7.58797 -3.35061 
3439 1 31.4734 25.1769 5.26962 -3.38599 
3440 1 34.0636 23.8866 5.16702 -3.44745 
56 1 37.8183 25.8524 6.7268 2.39968 
3256 1 38.2201 23.4402 4.4753 -0.994504 
3291 1 38.8061 26.275 4.4056 -0.495789 
3398 1 35.7978 23.9346 7.48538 -3.38327 
3443 1 35.3287 26.3619 5.97781 -3.41204 
3444 1 37.9189 25.0716 5.87522 2.2718 
57 1 39.8441 23.8689 6.13838 -2.52529 
105 1 40.4729 26.6875 5.92646 -2.69935 
107 1 2.17742 27.5226 5.12612 -3.08604 
120 1 0.151587 29.5061 5.71455 -2.24855 
123 1 1.92289 30.7433 7.64234 -3.04411 
149 1 2.80614 30.3411 4.91421 -3.14929 
124 1 3.94871 28.7598 7.05391 -3.35369 
142 1 4.83197 28.3576 4.32578 -3.28296 
151 1 5.46069 31.1762 4.11387 -3.28237 
153 1 6.60326 29.5948 6.25357 -2.79278 
146 1 8.6291 27.6113 5.66514 -1.33505 
316 1 9.29661 30.4615 4.22287 -2.08331 
317 1 11.615 28.9176 5.01404 -1.30182 
318 1 9.2253 28.8824 6.64891 -1.16046 
319 1 11.5436 27.3384 7.44008 -2.85607 
320 1 11.6074 30.2291 7.59557 -3.44219 
315 1 13.9333 27.3736 5.80521 -1.58203 
357 1 13.9971 30.2643 5.96069 -2.80335 
1553 1 11.9131 27.6338 3.914 -1.14964 
1556 1 14.5565 28.5968 4.5994 -1.21266 
714 1 17.4632 28.3685 6.37408 -0.726888 
721 1 15.9718 30.5624 7.53474 -3.11963 
778 1 18.8545 30.7266 7.31658 -3.33823 
1565 1 17.1999 29.5597 5.28479 -0.98149 
772 1 20.0947 31.0335 4.71805 -2.39236 
773 1 20.3459 28.5327 6.15592 -3.25544 
780 1 21.7372 30.8907 7.09842 -3.2595 
3446 1 26.293 27.7574 5.47481 -3.19636 
3459 1 23.7027 29.0476 5.5774 -3.11084 
3461 1 25.8238 30.1847 3.96724 -3.16919 
3405 1 28.0272 27.8053 7.79316 -3.29195 
3450 1 30.1483 28.9424 6.183 -3.34027 
3463 1 27.558 30.2326 6.2856 -3.28852 
3451 1 32.7385 27.6521 6.08041 -3.34116 
3452 1 32.2694 30.0794 4.57285 -3.34028 
3453 1 34.8596 28.7891 4.47025 -3.53748 
3454 1 34.0036 30.1273 6.8912 -3.40738 
118 1 38.447 28.671 6.51489 -0.212417 
3445 1 37.4498 27.4989 4.36766 -0.670448 
3455 1 36.5938 28.8371 6.78861 -1.93813 
3457 1 38.7149 29.9741 5.17845 2.72076 
3292 1 39.392 29.1099 4.3359 0.208365 
148 1 0.780307 32.3246 5.50264 -2.60108 
150 1 3.43486 33.1597 4.7023 -1.71949 
331 1 2.26276 34.8259 6.85692 -1.72721 
152 1 4.57744 31.5783 6.842 -1.85361 
213 1 5.91085 34.5928 4.70276 -2.46812 
322 1 6.97076 33.3171 6.01322 -2.62168 
332 1 4.5811 33.2819 7.64809 -1.85855 
215 1 8.66984 33.8731 4.19836 2.01784 
323 1 9.2891 31.7731 6.80439 -3.48523 
356 1 11.6788 31.8083 5.16952 -2.68288 
360 1 9.36042 33.3523 4.37835 3.09573 
362 1 9.35291 34.6638 6.95987 -3.41612 
363 1 11.6712 33.1199 7.75105 -3.42779 
358 1 14.0609 33.155 6.11618 -0.744117 
361 1 11.7426 34.699 5.32501 -3.39918 
1563 1 14.5035 33.5678 3.93636 -2.65015 
774 1 15.7206 33.0632 6.09688 -0.885952 
776 1 18.6033 33.2274 5.87872 -2.78348 
1566 1 18.2559 31.9295 3.99895 -2.49875 
1568 1 17.1469 34.5307 4.62177 1.67351 
1912 1 16.3072 35.0905 4.7315 1.49601 
824 1 21.486 33.3915 5.66056 -3.32493 
3460 1 23.2336 31.4749 4.06984 -3.07329 
3462 1 24.9678 31.5229 6.38819 -3.24427 
3464 1 27.0889 32.6599 4.77804 -3.30923 
3476 1 24.4987 33.9501 4.88063 -3.29237 
3477 1 26.2329 33.9981 7.19899 -3.28 
3465 1 29.6791 31.3696 4.67544 -3.32918 
3466 1 28.8231 32.7078 7.09639 -3.3222 
3468 1 30.9442 33.8449 5.48623 -3.35133 
3467 1 31.4133 31.4176 6.9938 -3.36229 
3469 1 33.5344 32.5546 5.38364 -3.35135 
3472 1 34.7995 35.0298 6.19443 -3.38157 
3456 1 36.1247 31.2644 5.28104 -3.48707 
3458 1 37.8589 31.3123 7.5994 0.951435 
3471 1 35.2686 32.6025 7.70199 -3.42995 
3473 1 37.3897 33.7396 6.09184 -3.18972 
119 1 39.0758 31.4896 6.30298 0.165633 
154 1 39.7045 34.3081 6.09107 -0.520336 
3342 1 39.9779 31.9447 4.26621 -1.25385 
3522 1 39.5108 34.8766 4.48168 4.39779 
171 1 0.392857 36.0323 5.71157 -2.37769 
172 1 2.30146 38.0672 4.93634 -3.11353 
173 1 3.15185 35.3126 5.20716 -1.55895 
187 1 4.3732 38.8886 6.78508 0.596551 
212 1 5.06046 37.3475 4.43194 -3.34618 
230 1 7.1322 38.1688 6.28068 -0.874005 
367 1 7.03457 36.2078 6.1687 -1.88289 
214 1 7.81946 36.6277 3.92754 -3.10142 
368 1 9.41671 37.5546 7.11536 -3.17976 
1914 1 11.143 37.695 5.02364 -3.32969 
1916 1 8.56087 38.9973 5.16972 -1.67612 
382 1 14.1247 36.0458 6.27166 -0.560802 
1915 1 13.7251 36.3928 4.87757 -0.517747 
775 1 17.1119 35.4213 7.03938 -3.15932 
1930 1 18.7214 36.6787 4.54773 -3.25136 
1941 1 16.1393 37.981 4.6938 -3.21491 
823 1 19.9946 35.5854 6.82122 -3.3162 
825 1 22.8773 35.7496 6.60306 -3.2659 